
     Program PWSCF v.6.7GPU starts on 24May2021 at  7:13:37 

     This program is part of the open-source Quantum ESPRESSO suite
     for quantum simulation of materials; please cite
         "P. Giannozzi et al., J. Phys.:Condens. Matter 21 395502 (2009);
         "P. Giannozzi et al., J. Phys.:Condens. Matter 29 465901 (2017);
         "P. Giannozzi et al., J. Chem. Phys. 152 154105 (2020);
          URL http://www.quantum-espresso.org", 
     in publications or presentations arising from this work. More details at
     http://www.quantum-espresso.org/quote

     Parallel version (MPI), running on     4 processors

     MPI processes distributed on     1 nodes
     R & G space division:  proc/nbgrp/npool/nimage =       4
     Waiting for input...
     Reading input from standard input
     Message from routine read_cards :
     DEPRECATED: no units specified in CELL_PARAMETERS card

     Current dimensions of program PWSCF are:
     Max number of different atomic species (ntypx) = 10
     Max number of k-points (npk) =  40000
     Max angular momentum in pseudopotentials (lmaxx) =  3

     gamma-point specific algorithms are used

     Subspace diagonalization in iterative solution of the eigenvalue problem:
     one sub-group per band group will be used
     scalapack distributed-memory algorithm (size of sub-group:  2*  2 procs)


     Parallelization info
     --------------------
     sticks:   dense  smooth     PW     G-vecs:    dense   smooth      PW
     Min        2543    2543    637               193371   193371   24241
     Max        2548    2548    642               193374   193374   24244
     Sum       10185   10185   2561               773489   773489   96969

     Using Slab Decomposition



     bravais-lattice index     =            0
     lattice parameter (alat)  =      20.0000  a.u.
     unit-cell volume          =    8000.0000 (a.u.)^3
     number of atoms/cell      =            7
     number of atomic types    =            3
     number of electrons       =        18.00
     number of Kohn-Sham states=            9
     kinetic-energy cutoff     =      80.0000  Ry
     charge density cutoff     =     320.0000  Ry
     scf convergence threshold =      1.0E-12
     mixing beta               =       0.5000
     number of iterations used =            8  plain     mixing
     Exchange-correlation= PBE
                           (   1   4   3   4   0   0   0)

     celldm(1)=  20.000000  celldm(2)=   0.000000  celldm(3)=   0.000000
     celldm(4)=   0.000000  celldm(5)=   0.000000  celldm(6)=   0.000000

     crystal axes: (cart. coord. in units of alat)
               a(1) = (   1.000000   0.000000   0.000000 )  
               a(2) = (   0.000000   1.000000   0.000000 )  
               a(3) = (   0.000000   0.000000   1.000000 )  

     reciprocal axes: (cart. coord. in units 2 pi/alat)
               b(1) = (  1.000000  0.000000  0.000000 )  
               b(2) = (  0.000000  1.000000  0.000000 )  
               b(3) = (  0.000000  0.000000  1.000000 )  


     PseudoPot. # 1 for C  read from file:
     /home/ciga/builds/pseudo_potentials/C.upf
     MD5 check sum: d80ec9912146af6c4c1760317d1f95e9
     Pseudo is Norm-conserving + core correction, Zval =  4.0
     Generated using ONCVPSP code by D. R. Hamann
     Using radial grid of 1248 points,  4 beta functions with: 
                l(1) =   0
                l(2) =   0
                l(3) =   1
                l(4) =   1

     PseudoPot. # 2 for O  read from file:
     /home/ciga/builds/pseudo_potentials/O.upf
     MD5 check sum: e357869f07dbe8d608261c380baea405
     Pseudo is Norm-conserving + core correction, Zval =  6.0
     Generated using ONCVPSP code by D. R. Hamann
     Using radial grid of  936 points,  5 beta functions with: 
                l(1) =   0
                l(2) =   0
                l(3) =   1
                l(4) =   1
                l(5) =   2

     PseudoPot. # 3 for H  read from file:
     /home/ciga/builds/pseudo_potentials/H.upf
     MD5 check sum: 418cee52d0c413ae40802e6cc37ab9e3
     Pseudo is Norm-conserving, Zval =  1.0
     Generated using ONCVPSP code by D. R. Hamann
     Using radial grid of 1166 points,  3 beta functions with: 
                l(1) =   0
                l(2) =   0
                l(3) =   1

     atomic species   valence    mass     pseudopotential
        C              4.00    12.01070     C ( 1.00)
        O              6.00    15.99940     O ( 1.00)
        H              1.00     1.00794     H ( 1.00)

     No symmetry found



   Cartesian axes

     site n.     atom                  positions (alat units)
         1           C   tau(   1) = (   0.0000000   0.0000000   0.0000000  )
         2           C   tau(   2) = (   0.0000000   0.0000000   0.1431468  )
         3           O   tau(   3) = (   0.0946708   0.0000000   0.2072437  )
         4           H   tau(   4) = (  -0.0963576   0.0000000   0.1886948  )
         5           H   tau(   5) = (  -0.0855762  -0.0494069  -0.0342985  )
         6           H   tau(   6) = (   0.0000000   0.0988138  -0.0342985  )
         7           H   tau(   7) = (   0.0855762  -0.0494069  -0.0342985  )

     number of k points=     1
                       cart. coord. in units 2pi/alat
        k(    1) = (   0.0000000   0.0000000   0.0000000), wk =   2.0000000

     Dense  grid:   386745 G-vectors     FFT dimensions: ( 120, 120, 120)

     Estimated max dynamical RAM per process >      96.18 MB

     Estimated total dynamical RAM >     384.72 MB

     Initial potential from superposition of free atoms

     starting charge   17.99987, renormalised to   18.00000

     negative rho (up, down):  6.837E-05 0.000E+00
     Starting wfcs are   16 randomized atomic wfcs

     total cpu time spent up to now is        1.5 secs

     Self-consistent Calculation

     iteration #  1     ecut=    80.00 Ry     beta= 0.50
     Davidson diagonalization with overlap
     ethr =  1.00E-02,  avg # of iterations =  2.0

     negative rho (up, down):  1.962E-05 0.000E+00

     total cpu time spent up to now is        2.9 secs

     total energy              =     -61.67730662 Ry
     estimated scf accuracy    <       0.80360185 Ry

     iteration #  2     ecut=    80.00 Ry     beta= 0.50
     Davidson diagonalization with overlap
     ethr =  4.46E-03,  avg # of iterations =  3.0

     negative rho (up, down):  6.046E-06 0.000E+00

     total cpu time spent up to now is        4.3 secs

     total energy              =     -61.81575674 Ry
     estimated scf accuracy    <       0.12845756 Ry

     iteration #  3     ecut=    80.00 Ry     beta= 0.50
     Davidson diagonalization with overlap
     ethr =  7.14E-04,  avg # of iterations =  4.0

     negative rho (up, down):  2.295E-06 0.000E+00

     total cpu time spent up to now is        5.7 secs

     total energy              =     -61.83292187 Ry
     estimated scf accuracy    <       0.02572542 Ry

     iteration #  4     ecut=    80.00 Ry     beta= 0.50
     Davidson diagonalization with overlap
     ethr =  1.43E-04,  avg # of iterations =  3.0

     negative rho (up, down):  8.637E-08 0.000E+00

     total cpu time spent up to now is        6.9 secs

     total energy              =     -61.83445460 Ry
     estimated scf accuracy    <       0.00359542 Ry

     iteration #  5     ecut=    80.00 Ry     beta= 0.50
     Davidson diagonalization with overlap
     ethr =  2.00E-05,  avg # of iterations =  2.0

     negative rho (up, down):  3.579E-08 0.000E+00

     total cpu time spent up to now is        8.3 secs

     total energy              =     -61.83481525 Ry
     estimated scf accuracy    <       0.00078417 Ry

     iteration #  6     ecut=    80.00 Ry     beta= 0.50
     Davidson diagonalization with overlap
     ethr =  4.36E-06,  avg # of iterations =  3.0

     negative rho (up, down):  1.034E-08 0.000E+00

     total cpu time spent up to now is        9.7 secs

     total energy              =     -61.83504119 Ry
     estimated scf accuracy    <       0.00014379 Ry

     iteration #  7     ecut=    80.00 Ry     beta= 0.50
     Davidson diagonalization with overlap
     ethr =  7.99E-07,  avg # of iterations =  2.0

     total cpu time spent up to now is       10.9 secs

     total energy              =     -61.83502967 Ry
     estimated scf accuracy    <       0.00003396 Ry

     iteration #  8     ecut=    80.00 Ry     beta= 0.50
     Davidson diagonalization with overlap
     ethr =  1.89E-07,  avg # of iterations =  5.0

     total cpu time spent up to now is       12.6 secs

     total energy              =     -61.83504422 Ry
     estimated scf accuracy    <       0.00003629 Ry

     iteration #  9     ecut=    80.00 Ry     beta= 0.50
     Davidson diagonalization with overlap
     ethr =  1.89E-07,  avg # of iterations =  3.0

     total cpu time spent up to now is       13.9 secs

     total energy              =     -61.83504784 Ry
     estimated scf accuracy    <       0.00000273 Ry

     iteration # 10     ecut=    80.00 Ry     beta= 0.50
     Davidson diagonalization with overlap
     ethr =  1.52E-08,  avg # of iterations =  4.0

     total cpu time spent up to now is       15.3 secs

     total energy              =     -61.83504874 Ry
     estimated scf accuracy    <       0.00000011 Ry

     iteration # 11     ecut=    80.00 Ry     beta= 0.50
     Davidson diagonalization with overlap
     ethr =  5.93E-10,  avg # of iterations =  5.0

     total cpu time spent up to now is       17.0 secs

     total energy              =     -61.83504884 Ry
     estimated scf accuracy    <       0.00000006 Ry

     iteration # 12     ecut=    80.00 Ry     beta= 0.50
     Davidson diagonalization with overlap
     ethr =  3.09E-10,  avg # of iterations =  1.0

     total cpu time spent up to now is       18.2 secs

     total energy              =     -61.83504882 Ry
     estimated scf accuracy    <       0.00000004 Ry

     iteration # 13     ecut=    80.00 Ry     beta= 0.50
     Davidson diagonalization with overlap
     ethr =  2.43E-10,  avg # of iterations =  3.0

     total cpu time spent up to now is       19.6 secs

     total energy              =     -61.83504883 Ry
     estimated scf accuracy    <          1.9E-09 Ry

     iteration # 14     ecut=    80.00 Ry     beta= 0.50
     Davidson diagonalization with overlap
     ethr =  1.06E-11,  avg # of iterations =  5.0

     total cpu time spent up to now is       21.2 secs

     total energy              =     -61.83504883 Ry
     estimated scf accuracy    <          5.8E-09 Ry

     iteration # 15     ecut=    80.00 Ry     beta= 0.50
     Davidson diagonalization with overlap
     ethr =  1.06E-11,  avg # of iterations =  4.0

     total cpu time spent up to now is       22.7 secs

     total energy              =     -61.83504883 Ry
     estimated scf accuracy    <          4.4E-10 Ry

     iteration # 16     ecut=    80.00 Ry     beta= 0.50
     Davidson diagonalization with overlap
     ethr =  2.46E-12,  avg # of iterations =  3.0

     total cpu time spent up to now is       24.2 secs

     total energy              =     -61.83504883 Ry
     estimated scf accuracy    <          6.5E-12 Ry

     iteration # 17     ecut=    80.00 Ry     beta= 0.50
     Davidson diagonalization with overlap
     ethr =  1.00E-13,  avg # of iterations =  6.0

     total cpu time spent up to now is       25.9 secs

     total energy              =     -61.83504883 Ry
     estimated scf accuracy    <          3.3E-11 Ry

     iteration # 18     ecut=    80.00 Ry     beta= 0.50
     Davidson diagonalization with overlap
     ethr =  1.00E-13,  avg # of iterations =  3.0

     total cpu time spent up to now is       27.2 secs

     total energy              =     -61.83504883 Ry
     estimated scf accuracy    <          4.7E-12 Ry

     iteration # 19     ecut=    80.00 Ry     beta= 0.50
     Davidson diagonalization with overlap
     ethr =  1.00E-13,  avg # of iterations =  2.0

     total cpu time spent up to now is       28.3 secs

     End of self-consistent calculation

          k = 0.0000 0.0000 0.0000 ( 48485 PWs)   bands (ev):

   -26.0490 -18.3501 -13.9565 -11.3685 -10.7854 -10.3317  -9.3361  -8.8136
    -5.6624

     highest occupied level (ev):    -5.6624

!    total energy              =     -61.83504883 Ry
     estimated scf accuracy    <          3.4E-13 Ry

     The total energy is the sum of the following terms:
     one-electron contribution =    -156.45292145 Ry
     hartree contribution      =      80.86405836 Ry
     xc contribution           =     -19.58988291 Ry
     ewald contribution        =      33.34369718 Ry

     convergence has been achieved in  19 iterations

     Forces acting on atoms (cartesian axes, Ry/au):

     atom    1 type  1   force =     0.00091085   -0.01633535    0.00412476
     atom    2 type  1   force =    -0.00511515    0.00206512   -0.00505583
     atom    3 type  2   force =    -0.00072271   -0.00078257    0.00227221
     atom    4 type  3   force =     0.00766881    0.00205680   -0.00204594
     atom    5 type  3   force =     0.00917772    0.01138577   -0.00153071
     atom    6 type  3   force =    -0.00219611   -0.01070853    0.00074627
     atom    7 type  3   force =    -0.00972342    0.01231876    0.00148923

     Total force =     0.031607     Total SCF correction =     0.000001

     Writing output data file ./Acetaldehyde.save/

     init_run     :      1.35s CPU      1.44s WALL (       1 calls)
     electrons    :     26.12s CPU     26.79s WALL (       1 calls)
     forces       :      0.85s CPU      0.88s WALL (       1 calls)

     Called by init_run:
     wfcinit      :      0.37s CPU      0.38s WALL (       1 calls)
     potinit      :      0.57s CPU      0.63s WALL (       1 calls)
     hinit0       :      0.26s CPU      0.29s WALL (       1 calls)

     Called by electrons:
     c_bands      :     13.46s CPU     13.56s WALL (      19 calls)
     sum_band     :      3.56s CPU      3.58s WALL (      19 calls)
     v_of_rho     :      7.03s CPU      7.58s WALL (      20 calls)
     mix_rho      :      2.18s CPU      2.22s WALL (      19 calls)

     Called by c_bands:
     init_us_2    :      0.24s CPU      0.26s WALL (      39 calls)
     regterg      :     13.16s CPU     13.25s WALL (      19 calls)

     Called by *egterg:
     rdiaghg      :      0.04s CPU      0.04s WALL (      82 calls)
     h_psi        :     12.10s CPU     12.19s WALL (      83 calls)
     g_psi        :      0.03s CPU      0.03s WALL (      63 calls)

     Called by h_psi:
     h_psi:calbec :      1.19s CPU      1.19s WALL (      83 calls)
     vloc_psi     :     10.12s CPU     10.20s WALL (      83 calls)
     add_vuspsi   :      0.73s CPU      0.73s WALL (      83 calls)

     General routines
     calbec       :      1.25s CPU      1.25s WALL (      87 calls)
     fft          :      5.03s CPU      5.15s WALL (     168 calls)
     ffts         :      0.55s CPU      0.55s WALL (      19 calls)
     fftw         :      9.45s CPU      9.51s WALL (     679 calls)

     Parallel routines

     PWSCF        :     28.43s CPU     29.23s WALL


   This run was terminated on:   7:14: 6  24May2021            

=------------------------------------------------------------------------------=
   JOB DONE.
=------------------------------------------------------------------------------=
