
     Program PWSCF v.6.7GPU starts on 24May2021 at  7:14:34 

     This program is part of the open-source Quantum ESPRESSO suite
     for quantum simulation of materials; please cite
         "P. Giannozzi et al., J. Phys.:Condens. Matter 21 395502 (2009);
         "P. Giannozzi et al., J. Phys.:Condens. Matter 29 465901 (2017);
         "P. Giannozzi et al., J. Chem. Phys. 152 154105 (2020);
          URL http://www.quantum-espresso.org", 
     in publications or presentations arising from this work. More details at
     http://www.quantum-espresso.org/quote

     Parallel version (MPI), running on     4 processors

     MPI processes distributed on     1 nodes
     R & G space division:  proc/nbgrp/npool/nimage =       4
     Waiting for input...
     Reading input from standard input
     Message from routine read_cards :
     DEPRECATED: no units specified in CELL_PARAMETERS card

     Current dimensions of program PWSCF are:
     Max number of different atomic species (ntypx) = 10
     Max number of k-points (npk) =  40000
     Max angular momentum in pseudopotentials (lmaxx) =  3

     gamma-point specific algorithms are used

     Subspace diagonalization in iterative solution of the eigenvalue problem:
     one sub-group per band group will be used
     scalapack distributed-memory algorithm (size of sub-group:  2*  2 procs)


     Parallelization info
     --------------------
     sticks:   dense  smooth     PW     G-vecs:    dense   smooth      PW
     Min        2862    2862    716               230578   230578   28824
     Max        2863    2863    718               230586   230586   28830
     Sum       11449   11449   2869               922329   922329  115313

     Using Slab Decomposition



     bravais-lattice index     =            0
     lattice parameter (alat)  =      20.0000  a.u.
     unit-cell volume          =    8000.0000 (a.u.)^3
     number of atoms/cell      =            7
     number of atomic types    =            3
     number of electrons       =        18.00
     number of Kohn-Sham states=            9
     kinetic-energy cutoff     =      90.0000  Ry
     charge density cutoff     =     360.0000  Ry
     scf convergence threshold =      1.0E-12
     mixing beta               =       0.5000
     number of iterations used =            8  plain     mixing
     Exchange-correlation= PBE
                           (   1   4   3   4   0   0   0)

     celldm(1)=  20.000000  celldm(2)=   0.000000  celldm(3)=   0.000000
     celldm(4)=   0.000000  celldm(5)=   0.000000  celldm(6)=   0.000000

     crystal axes: (cart. coord. in units of alat)
               a(1) = (   1.000000   0.000000   0.000000 )  
               a(2) = (   0.000000   1.000000   0.000000 )  
               a(3) = (   0.000000   0.000000   1.000000 )  

     reciprocal axes: (cart. coord. in units 2 pi/alat)
               b(1) = (  1.000000  0.000000  0.000000 )  
               b(2) = (  0.000000  1.000000  0.000000 )  
               b(3) = (  0.000000  0.000000  1.000000 )  


     PseudoPot. # 1 for C  read from file:
     /home/ciga/builds/pseudo_potentials/C.upf
     MD5 check sum: d80ec9912146af6c4c1760317d1f95e9
     Pseudo is Norm-conserving + core correction, Zval =  4.0
     Generated using ONCVPSP code by D. R. Hamann
     Using radial grid of 1248 points,  4 beta functions with: 
                l(1) =   0
                l(2) =   0
                l(3) =   1
                l(4) =   1

     PseudoPot. # 2 for O  read from file:
     /home/ciga/builds/pseudo_potentials/O.upf
     MD5 check sum: e357869f07dbe8d608261c380baea405
     Pseudo is Norm-conserving + core correction, Zval =  6.0
     Generated using ONCVPSP code by D. R. Hamann
     Using radial grid of  936 points,  5 beta functions with: 
                l(1) =   0
                l(2) =   0
                l(3) =   1
                l(4) =   1
                l(5) =   2

     PseudoPot. # 3 for H  read from file:
     /home/ciga/builds/pseudo_potentials/H.upf
     MD5 check sum: 418cee52d0c413ae40802e6cc37ab9e3
     Pseudo is Norm-conserving, Zval =  1.0
     Generated using ONCVPSP code by D. R. Hamann
     Using radial grid of 1166 points,  3 beta functions with: 
                l(1) =   0
                l(2) =   0
                l(3) =   1

     atomic species   valence    mass     pseudopotential
        C              4.00    12.01070     C ( 1.00)
        O              6.00    15.99940     O ( 1.00)
        H              1.00     1.00794     H ( 1.00)

     No symmetry found



   Cartesian axes

     site n.     atom                  positions (alat units)
         1           C   tau(   1) = (   0.0000000   0.0000000   0.0000000  )
         2           C   tau(   2) = (   0.0000000   0.0000000   0.1431468  )
         3           O   tau(   3) = (   0.0946708   0.0000000   0.2072437  )
         4           H   tau(   4) = (  -0.0963576   0.0000000   0.1886948  )
         5           H   tau(   5) = (  -0.0855762  -0.0494069  -0.0342985  )
         6           H   tau(   6) = (   0.0000000   0.0988138  -0.0342985  )
         7           H   tau(   7) = (   0.0855762  -0.0494069  -0.0342985  )

     number of k points=     1
                       cart. coord. in units 2pi/alat
        k(    1) = (   0.0000000   0.0000000   0.0000000), wk =   2.0000000

     Dense  grid:   461165 G-vectors     FFT dimensions: ( 125, 125, 125)

     Estimated max dynamical RAM per process >     113.26 MB

     Estimated total dynamical RAM >     453.02 MB

     Initial potential from superposition of free atoms

     starting charge   17.99987, renormalised to   18.00000

     negative rho (up, down):  2.597E-05 0.000E+00
     Starting wfcs are   16 randomized atomic wfcs

     total cpu time spent up to now is        1.8 secs

     Self-consistent Calculation

     iteration #  1     ecut=    90.00 Ry     beta= 0.50
     Davidson diagonalization with overlap
     ethr =  1.00E-02,  avg # of iterations =  2.0

     negative rho (up, down):  3.891E-06 0.000E+00

     total cpu time spent up to now is        3.5 secs

     total energy              =     -61.67839614 Ry
     estimated scf accuracy    <       0.80192293 Ry

     iteration #  2     ecut=    90.00 Ry     beta= 0.50
     Davidson diagonalization with overlap
     ethr =  4.46E-03,  avg # of iterations =  3.0

     negative rho (up, down):  7.457E-07 0.000E+00

     total cpu time spent up to now is        5.1 secs

     total energy              =     -61.81569079 Ry
     estimated scf accuracy    <       0.12900687 Ry

     iteration #  3     ecut=    90.00 Ry     beta= 0.50
     Davidson diagonalization with overlap
     ethr =  7.17E-04,  avg # of iterations =  4.0

     negative rho (up, down):  2.379E-07 0.000E+00

     total cpu time spent up to now is        6.8 secs

     total energy              =     -61.83310586 Ry
     estimated scf accuracy    <       0.02571817 Ry

     iteration #  4     ecut=    90.00 Ry     beta= 0.50
     Davidson diagonalization with overlap
     ethr =  1.43E-04,  avg # of iterations =  3.0

     total cpu time spent up to now is        8.3 secs

     total energy              =     -61.83464517 Ry
     estimated scf accuracy    <       0.00358557 Ry

     iteration #  5     ecut=    90.00 Ry     beta= 0.50
     Davidson diagonalization with overlap
     ethr =  1.99E-05,  avg # of iterations =  2.0

     total cpu time spent up to now is        9.9 secs

     total energy              =     -61.83500180 Ry
     estimated scf accuracy    <       0.00078019 Ry

     iteration #  6     ecut=    90.00 Ry     beta= 0.50
     Davidson diagonalization with overlap
     ethr =  4.33E-06,  avg # of iterations =  4.0

     total cpu time spent up to now is       11.7 secs

     total energy              =     -61.83522666 Ry
     estimated scf accuracy    <       0.00015592 Ry

     iteration #  7     ecut=    90.00 Ry     beta= 0.50
     Davidson diagonalization with overlap
     ethr =  8.66E-07,  avg # of iterations =  2.0

     total cpu time spent up to now is       13.1 secs

     total energy              =     -61.83521857 Ry
     estimated scf accuracy    <       0.00003056 Ry

     iteration #  8     ecut=    90.00 Ry     beta= 0.50
     Davidson diagonalization with overlap
     ethr =  1.70E-07,  avg # of iterations =  5.0

     total cpu time spent up to now is       15.1 secs

     total energy              =     -61.83523180 Ry
     estimated scf accuracy    <       0.00003391 Ry

     iteration #  9     ecut=    90.00 Ry     beta= 0.50
     Davidson diagonalization with overlap
     ethr =  1.70E-07,  avg # of iterations =  3.0

     total cpu time spent up to now is       16.6 secs

     total energy              =     -61.83523562 Ry
     estimated scf accuracy    <       0.00000205 Ry

     iteration # 10     ecut=    90.00 Ry     beta= 0.50
     Davidson diagonalization with overlap
     ethr =  1.14E-08,  avg # of iterations =  5.0

     total cpu time spent up to now is       18.5 secs

     total energy              =     -61.83523635 Ry
     estimated scf accuracy    <       0.00000005 Ry

     iteration # 11     ecut=    90.00 Ry     beta= 0.50
     Davidson diagonalization with overlap
     ethr =  2.77E-10,  avg # of iterations =  5.0

     total cpu time spent up to now is       20.5 secs

     total energy              =     -61.83523640 Ry
     estimated scf accuracy    <          6.3E-09 Ry

     iteration # 12     ecut=    90.00 Ry     beta= 0.50
     Davidson diagonalization with overlap
     ethr =  3.51E-11,  avg # of iterations =  3.0

     total cpu time spent up to now is       22.2 secs

     total energy              =     -61.83523640 Ry
     estimated scf accuracy    <          5.1E-09 Ry

     iteration # 13     ecut=    90.00 Ry     beta= 0.50
     Davidson diagonalization with overlap
     ethr =  2.85E-11,  avg # of iterations =  3.0

     total cpu time spent up to now is       24.0 secs

     total energy              =     -61.83523640 Ry
     estimated scf accuracy    <          1.4E-09 Ry

     iteration # 14     ecut=    90.00 Ry     beta= 0.50
     Davidson diagonalization with overlap
     ethr =  7.96E-12,  avg # of iterations =  2.0

     total cpu time spent up to now is       25.5 secs

     total energy              =     -61.83523640 Ry
     estimated scf accuracy    <          4.6E-10 Ry

     iteration # 15     ecut=    90.00 Ry     beta= 0.50
     Davidson diagonalization with overlap
     ethr =  2.55E-12,  avg # of iterations =  2.0

     total cpu time spent up to now is       27.1 secs

     total energy              =     -61.83523640 Ry
     estimated scf accuracy    <          6.1E-11 Ry

     iteration # 16     ecut=    90.00 Ry     beta= 0.50
     Davidson diagonalization with overlap
     ethr =  3.37E-13,  avg # of iterations =  5.0

     total cpu time spent up to now is       29.0 secs

     total energy              =     -61.83523640 Ry
     estimated scf accuracy    <          5.1E-11 Ry

     iteration # 17     ecut=    90.00 Ry     beta= 0.50
     Davidson diagonalization with overlap
     ethr =  2.86E-13,  avg # of iterations =  3.0

     total cpu time spent up to now is       30.6 secs

     total energy              =     -61.83523640 Ry
     estimated scf accuracy    <          1.2E-12 Ry

     iteration # 18     ecut=    90.00 Ry     beta= 0.50
     Davidson diagonalization with overlap
     ethr =  1.00E-13,  avg # of iterations =  2.0

     total cpu time spent up to now is       31.9 secs

     End of self-consistent calculation

          k = 0.0000 0.0000 0.0000 ( 57657 PWs)   bands (ev):

   -26.0488 -18.3500 -13.9564 -11.3684 -10.7854 -10.3316  -9.3360  -8.8135
    -5.6624

     highest occupied level (ev):    -5.6624

!    total energy              =     -61.83523640 Ry
     estimated scf accuracy    <          7.7E-13 Ry

     The total energy is the sum of the following terms:
     one-electron contribution =    -156.45316033 Ry
     hartree contribution      =      80.86426501 Ry
     xc contribution           =     -19.59003826 Ry
     ewald contribution        =      33.34369718 Ry

     convergence has been achieved in  18 iterations

     Forces acting on atoms (cartesian axes, Ry/au):

     atom    1 type  1   force =     0.00089819   -0.01633427    0.00414930
     atom    2 type  1   force =    -0.00515911    0.00206413   -0.00509267
     atom    3 type  2   force =    -0.00061567   -0.00078257    0.00226651
     atom    4 type  3   force =     0.00766155    0.00205700   -0.00204750
     atom    5 type  3   force =     0.00917384    0.01139163   -0.00152428
     atom    6 type  3   force =    -0.00221053   -0.01072064    0.00075272
     atom    7 type  3   force =    -0.00974828    0.01232472    0.00149592

     Total force =     0.031634     Total SCF correction =     0.000002

     Writing output data file ./Acetaldehyde.save/

     init_run     :      1.59s CPU      1.72s WALL (       1 calls)
     electrons    :     29.38s CPU     30.07s WALL (       1 calls)
     forces       :      0.99s CPU      1.04s WALL (       1 calls)

     Called by init_run:
     wfcinit      :      0.46s CPU      0.47s WALL (       1 calls)
     potinit      :      0.65s CPU      0.73s WALL (       1 calls)
     hinit0       :      0.27s CPU      0.30s WALL (       1 calls)

     Called by electrons:
     c_bands      :     15.39s CPU     15.49s WALL (      18 calls)
     sum_band     :      4.01s CPU      4.04s WALL (      18 calls)
     v_of_rho     :      7.75s CPU      8.30s WALL (      19 calls)
     mix_rho      :      2.40s CPU      2.45s WALL (      18 calls)

     Called by c_bands:
     init_us_2    :      0.29s CPU      0.30s WALL (      37 calls)
     regterg      :     15.04s CPU     15.14s WALL (      18 calls)

     Called by *egterg:
     rdiaghg      :      0.04s CPU      0.04s WALL (      76 calls)
     h_psi        :     13.82s CPU     13.91s WALL (      77 calls)
     g_psi        :      0.03s CPU      0.03s WALL (      58 calls)

     Called by h_psi:
     h_psi:calbec :      1.01s CPU      1.01s WALL (      77 calls)
     vloc_psi     :     11.91s CPU     12.01s WALL (      77 calls)
     add_vuspsi   :      0.82s CPU      0.82s WALL (      77 calls)

     General routines
     calbec       :      1.08s CPU      1.08s WALL (      81 calls)
     fft          :      5.61s CPU      5.73s WALL (     160 calls)
     ffts         :      0.64s CPU      0.64s WALL (      18 calls)
     fftw         :     11.33s CPU     11.41s WALL (     636 calls)

     Parallel routines

     PWSCF        :     32.10s CPU     32.99s WALL


   This run was terminated on:   7:15: 7  24May2021            

=------------------------------------------------------------------------------=
   JOB DONE.
=------------------------------------------------------------------------------=
