
     Program PWSCF v.6.7GPU starts on 24May2021 at  7:12: 8 

     This program is part of the open-source Quantum ESPRESSO suite
     for quantum simulation of materials; please cite
         "P. Giannozzi et al., J. Phys.:Condens. Matter 21 395502 (2009);
         "P. Giannozzi et al., J. Phys.:Condens. Matter 29 465901 (2017);
         "P. Giannozzi et al., J. Chem. Phys. 152 154105 (2020);
          URL http://www.quantum-espresso.org", 
     in publications or presentations arising from this work. More details at
     http://www.quantum-espresso.org/quote

     Parallel version (MPI), running on     4 processors

     MPI processes distributed on     1 nodes
     R & G space division:  proc/nbgrp/npool/nimage =       4
     Waiting for input...
     Reading input from standard input
     Message from routine read_cards :
     DEPRECATED: no units specified in CELL_PARAMETERS card

     Current dimensions of program PWSCF are:
     Max number of different atomic species (ntypx) = 10
     Max number of k-points (npk) =  40000
     Max angular momentum in pseudopotentials (lmaxx) =  3

     gamma-point specific algorithms are used

     Subspace diagonalization in iterative solution of the eigenvalue problem:
     one sub-group per band group will be used
     scalapack distributed-memory algorithm (size of sub-group:  2*  2 procs)


     Parallelization info
     --------------------
     sticks:   dense  smooth     PW     G-vecs:    dense   smooth      PW
     Min        1910    1910    473               125614   125614   15665
     Max        1912    1912    476               125624   125624   15668
     Sum        7645    7645   1901               502479   502479   62669

     Using Slab Decomposition



     bravais-lattice index     =            0
     lattice parameter (alat)  =      20.0000  a.u.
     unit-cell volume          =    8000.0000 (a.u.)^3
     number of atoms/cell      =            7
     number of atomic types    =            3
     number of electrons       =        18.00
     number of Kohn-Sham states=            9
     kinetic-energy cutoff     =      60.0000  Ry
     charge density cutoff     =     240.0000  Ry
     scf convergence threshold =      1.0E-12
     mixing beta               =       0.5000
     number of iterations used =            8  plain     mixing
     Exchange-correlation= PBE
                           (   1   4   3   4   0   0   0)

     celldm(1)=  20.000000  celldm(2)=   0.000000  celldm(3)=   0.000000
     celldm(4)=   0.000000  celldm(5)=   0.000000  celldm(6)=   0.000000

     crystal axes: (cart. coord. in units of alat)
               a(1) = (   1.000000   0.000000   0.000000 )  
               a(2) = (   0.000000   1.000000   0.000000 )  
               a(3) = (   0.000000   0.000000   1.000000 )  

     reciprocal axes: (cart. coord. in units 2 pi/alat)
               b(1) = (  1.000000  0.000000  0.000000 )  
               b(2) = (  0.000000  1.000000  0.000000 )  
               b(3) = (  0.000000  0.000000  1.000000 )  


     PseudoPot. # 1 for C  read from file:
     /home/ciga/builds/pseudo_potentials/C.upf
     MD5 check sum: d80ec9912146af6c4c1760317d1f95e9
     Pseudo is Norm-conserving + core correction, Zval =  4.0
     Generated using ONCVPSP code by D. R. Hamann
     Using radial grid of 1248 points,  4 beta functions with: 
                l(1) =   0
                l(2) =   0
                l(3) =   1
                l(4) =   1

     PseudoPot. # 2 for O  read from file:
     /home/ciga/builds/pseudo_potentials/O.upf
     MD5 check sum: e357869f07dbe8d608261c380baea405
     Pseudo is Norm-conserving + core correction, Zval =  6.0
     Generated using ONCVPSP code by D. R. Hamann
     Using radial grid of  936 points,  5 beta functions with: 
                l(1) =   0
                l(2) =   0
                l(3) =   1
                l(4) =   1
                l(5) =   2

     PseudoPot. # 3 for H  read from file:
     /home/ciga/builds/pseudo_potentials/H.upf
     MD5 check sum: 418cee52d0c413ae40802e6cc37ab9e3
     Pseudo is Norm-conserving, Zval =  1.0
     Generated using ONCVPSP code by D. R. Hamann
     Using radial grid of 1166 points,  3 beta functions with: 
                l(1) =   0
                l(2) =   0
                l(3) =   1

     atomic species   valence    mass     pseudopotential
        C              4.00    12.01070     C ( 1.00)
        O              6.00    15.99940     O ( 1.00)
        H              1.00     1.00794     H ( 1.00)

     No symmetry found



   Cartesian axes

     site n.     atom                  positions (alat units)
         1           C   tau(   1) = (   0.0000000   0.0000000   0.0000000  )
         2           C   tau(   2) = (   0.0000000   0.0000000   0.1431468  )
         3           O   tau(   3) = (   0.0946708   0.0000000   0.2072437  )
         4           H   tau(   4) = (  -0.0963576   0.0000000   0.1886948  )
         5           H   tau(   5) = (  -0.0855762  -0.0494069  -0.0342985  )
         6           H   tau(   6) = (   0.0000000   0.0988138  -0.0342985  )
         7           H   tau(   7) = (   0.0855762  -0.0494069  -0.0342985  )

     number of k points=     1
                       cart. coord. in units 2pi/alat
        k(    1) = (   0.0000000   0.0000000   0.0000000), wk =   2.0000000

     Dense  grid:   251240 G-vectors     FFT dimensions: ( 100, 100, 100)

     Estimated max dynamical RAM per process >      61.04 MB

     Estimated total dynamical RAM >     244.18 MB

     Check: negative core charge=   -0.000003

     Initial potential from superposition of free atoms

     starting charge   17.99987, renormalised to   18.00000

     negative rho (up, down):  3.092E-04 0.000E+00
     Starting wfcs are   16 randomized atomic wfcs

     total cpu time spent up to now is        1.0 secs

     Self-consistent Calculation

     iteration #  1     ecut=    60.00 Ry     beta= 0.50
     Davidson diagonalization with overlap
     ethr =  1.00E-02,  avg # of iterations =  2.0

     negative rho (up, down):  1.288E-04 0.000E+00

     total cpu time spent up to now is        1.9 secs

     total energy              =     -61.66609605 Ry
     estimated scf accuracy    <       0.79185381 Ry

     iteration #  2     ecut=    60.00 Ry     beta= 0.50
     Davidson diagonalization with overlap
     ethr =  4.40E-03,  avg # of iterations =  3.0

     negative rho (up, down):  5.818E-05 0.000E+00

     total cpu time spent up to now is        2.7 secs

     total energy              =     -61.80032471 Ry
     estimated scf accuracy    <       0.12341331 Ry

     iteration #  3     ecut=    60.00 Ry     beta= 0.50
     Davidson diagonalization with overlap
     ethr =  6.86E-04,  avg # of iterations =  4.0

     negative rho (up, down):  2.455E-05 0.000E+00

     total cpu time spent up to now is        3.5 secs

     total energy              =     -61.81641086 Ry
     estimated scf accuracy    <       0.02540264 Ry

     iteration #  4     ecut=    60.00 Ry     beta= 0.50
     Davidson diagonalization with overlap
     ethr =  1.41E-04,  avg # of iterations =  3.0

     negative rho (up, down):  8.236E-07 0.000E+00

     total cpu time spent up to now is        4.2 secs

     total energy              =     -61.81797734 Ry
     estimated scf accuracy    <       0.00351116 Ry

     iteration #  5     ecut=    60.00 Ry     beta= 0.50
     Davidson diagonalization with overlap
     ethr =  1.95E-05,  avg # of iterations =  2.0

     negative rho (up, down):  2.937E-07 0.000E+00

     total cpu time spent up to now is        5.0 secs

     total energy              =     -61.81831786 Ry
     estimated scf accuracy    <       0.00077212 Ry

     iteration #  6     ecut=    60.00 Ry     beta= 0.50
     Davidson diagonalization with overlap
     ethr =  4.29E-06,  avg # of iterations =  4.0

     negative rho (up, down):  4.148E-08 0.000E+00

     total cpu time spent up to now is        5.9 secs

     total energy              =     -61.81853617 Ry
     estimated scf accuracy    <       0.00015624 Ry

     iteration #  7     ecut=    60.00 Ry     beta= 0.50
     Davidson diagonalization with overlap
     ethr =  8.68E-07,  avg # of iterations =  2.0

     total cpu time spent up to now is        6.7 secs

     total energy              =     -61.81853299 Ry
     estimated scf accuracy    <       0.00002538 Ry

     iteration #  8     ecut=    60.00 Ry     beta= 0.50
     Davidson diagonalization with overlap
     ethr =  1.41E-07,  avg # of iterations =  5.0

     total cpu time spent up to now is        7.6 secs

     total energy              =     -61.81854480 Ry
     estimated scf accuracy    <       0.00003147 Ry

     iteration #  9     ecut=    60.00 Ry     beta= 0.50
     Davidson diagonalization with overlap
     ethr =  1.41E-07,  avg # of iterations =  3.0

     total cpu time spent up to now is        8.4 secs

     total energy              =     -61.81854792 Ry
     estimated scf accuracy    <       0.00000228 Ry

     iteration # 10     ecut=    60.00 Ry     beta= 0.50
     Davidson diagonalization with overlap
     ethr =  1.26E-08,  avg # of iterations =  4.0

     total cpu time spent up to now is        9.3 secs

     total energy              =     -61.81854874 Ry
     estimated scf accuracy    <       0.00000004 Ry

     iteration # 11     ecut=    60.00 Ry     beta= 0.50
     Davidson diagonalization with overlap
     ethr =  2.18E-10,  avg # of iterations =  5.0

     total cpu time spent up to now is       10.4 secs

     total energy              =     -61.81854878 Ry
     estimated scf accuracy    <          7.4E-09 Ry

     iteration # 12     ecut=    60.00 Ry     beta= 0.50
     Davidson diagonalization with overlap
     ethr =  4.11E-11,  avg # of iterations =  3.0

     total cpu time spent up to now is       11.2 secs

     total energy              =     -61.81854878 Ry
     estimated scf accuracy    <          6.9E-09 Ry

     iteration # 13     ecut=    60.00 Ry     beta= 0.50
     Davidson diagonalization with overlap
     ethr =  3.84E-11,  avg # of iterations =  2.0

     total cpu time spent up to now is       12.0 secs

     total energy              =     -61.81854878 Ry
     estimated scf accuracy    <          1.4E-09 Ry

     iteration # 14     ecut=    60.00 Ry     beta= 0.50
     Davidson diagonalization with overlap
     ethr =  8.05E-12,  avg # of iterations =  5.0

     total cpu time spent up to now is       12.9 secs

     total energy              =     -61.81854878 Ry
     estimated scf accuracy    <          4.6E-10 Ry

     iteration # 15     ecut=    60.00 Ry     beta= 0.50
     Davidson diagonalization with overlap
     ethr =  2.57E-12,  avg # of iterations =  2.0

     total cpu time spent up to now is       13.7 secs

     total energy              =     -61.81854878 Ry
     estimated scf accuracy    <          1.2E-10 Ry

     iteration # 16     ecut=    60.00 Ry     beta= 0.50
     Davidson diagonalization with overlap
     ethr =  6.48E-13,  avg # of iterations =  5.0

     total cpu time spent up to now is       14.6 secs

     total energy              =     -61.81854878 Ry
     estimated scf accuracy    <          1.1E-11 Ry

     iteration # 17     ecut=    60.00 Ry     beta= 0.50
     Davidson diagonalization with overlap
     ethr =  1.00E-13,  avg # of iterations =  2.0

     total cpu time spent up to now is       15.4 secs

     total energy              =     -61.81854878 Ry
     estimated scf accuracy    <          1.7E-12 Ry

     iteration # 18     ecut=    60.00 Ry     beta= 0.50
     Davidson diagonalization with overlap
     ethr =  1.00E-13,  avg # of iterations =  2.0

     total cpu time spent up to now is       16.1 secs

     End of self-consistent calculation

          k = 0.0000 0.0000 0.0000 ( 31335 PWs)   bands (ev):

   -26.0745 -18.3600 -13.9645 -11.3722 -10.7870 -10.3361  -9.3369  -8.8156
    -5.6632

     highest occupied level (ev):    -5.6632

!    total energy              =     -61.81854878 Ry
     estimated scf accuracy    <          2.9E-13 Ry

     The total energy is the sum of the following terms:
     one-electron contribution =    -156.42183006 Ry
     hartree contribution      =      80.84187196 Ry
     xc contribution           =     -19.58228785 Ry
     ewald contribution        =      33.34369717 Ry

     convergence has been achieved in  18 iterations

     Forces acting on atoms (cartesian axes, Ry/au):

     atom    1 type  1   force =     0.00088152   -0.01633101    0.00530659
     atom    2 type  1   force =    -0.00668663    0.00207514   -0.00737790
     atom    3 type  2   force =     0.00184872   -0.00078685    0.00388181
     atom    4 type  3   force =     0.00680320    0.00205848   -0.00160108
     atom    5 type  3   force =     0.00843954    0.01099951   -0.00183864
     atom    6 type  3   force =    -0.00223766   -0.00993334    0.00046094
     atom    7 type  3   force =    -0.00904869    0.01191808    0.00116829

     Total force =     0.031560     Total SCF correction =     0.000001

     Writing output data file ./Acetaldehyde.save/

     init_run     :      0.87s CPU      0.94s WALL (       1 calls)
     electrons    :     14.67s CPU     15.04s WALL (       1 calls)
     forces       :      0.60s CPU      0.62s WALL (       1 calls)

     Called by init_run:
     wfcinit      :      0.21s CPU      0.21s WALL (       1 calls)
     potinit      :      0.39s CPU      0.43s WALL (       1 calls)
     hinit0       :      0.19s CPU      0.20s WALL (       1 calls)

     Called by electrons:
     c_bands      :      6.98s CPU      7.03s WALL (      18 calls)
     sum_band     :      1.94s CPU      1.96s WALL (      18 calls)
     v_of_rho     :      4.57s CPU      4.87s WALL (      19 calls)
     mix_rho      :      1.26s CPU      1.28s WALL (      18 calls)

     Called by c_bands:
     init_us_2    :      0.16s CPU      0.16s WALL (      37 calls)
     regterg      :      6.79s CPU      6.84s WALL (      18 calls)

     Called by *egterg:
     rdiaghg      :      0.04s CPU      0.04s WALL (      76 calls)
     h_psi        :      6.19s CPU      6.24s WALL (      77 calls)
     g_psi        :      0.02s CPU      0.02s WALL (      58 calls)

     Called by h_psi:
     h_psi:calbec :      0.55s CPU      0.55s WALL (      77 calls)
     vloc_psi     :      5.16s CPU      5.21s WALL (      77 calls)
     add_vuspsi   :      0.44s CPU      0.44s WALL (      77 calls)

     General routines
     calbec       :      0.59s CPU      0.59s WALL (      81 calls)
     fft          :      2.84s CPU      2.91s WALL (     160 calls)
     ffts         :      0.32s CPU      0.32s WALL (      18 calls)
     fftw         :      4.77s CPU      4.81s WALL (     642 calls)

     Parallel routines

     PWSCF        :     16.26s CPU     16.72s WALL


   This run was terminated on:   7:12:24  24May2021            

=------------------------------------------------------------------------------=
   JOB DONE.
=------------------------------------------------------------------------------=
