
     Program PWSCF v.6.7GPU starts on 24May2021 at  7:11:27 

     This program is part of the open-source Quantum ESPRESSO suite
     for quantum simulation of materials; please cite
         "P. Giannozzi et al., J. Phys.:Condens. Matter 21 395502 (2009);
         "P. Giannozzi et al., J. Phys.:Condens. Matter 29 465901 (2017);
         "P. Giannozzi et al., J. Chem. Phys. 152 154105 (2020);
          URL http://www.quantum-espresso.org", 
     in publications or presentations arising from this work. More details at
     http://www.quantum-espresso.org/quote

     Parallel version (MPI), running on     4 processors

     MPI processes distributed on     1 nodes
     R & G space division:  proc/nbgrp/npool/nimage =       4
     Waiting for input...
     Reading input from standard input
     Message from routine read_cards :
     DEPRECATED: no units specified in CELL_PARAMETERS card

     Current dimensions of program PWSCF are:
     Max number of different atomic species (ntypx) = 10
     Max number of k-points (npk) =  40000
     Max angular momentum in pseudopotentials (lmaxx) =  3

     gamma-point specific algorithms are used

     Subspace diagonalization in iterative solution of the eigenvalue problem:
     one sub-group per band group will be used
     scalapack distributed-memory algorithm (size of sub-group:  2*  2 procs)


     Parallelization info
     --------------------
     sticks:   dense  smooth     PW     G-vecs:    dense   smooth      PW
     Min        1429    1429    358                81505    81505   10162
     Max        1432    1432    359                81512    81512   10165
     Sum        5721    5721   1433               326029   326029   40651

     Using Slab Decomposition



     bravais-lattice index     =            0
     lattice parameter (alat)  =      20.0000  a.u.
     unit-cell volume          =    8000.0000 (a.u.)^3
     number of atoms/cell      =            7
     number of atomic types    =            3
     number of electrons       =        18.00
     number of Kohn-Sham states=            9
     kinetic-energy cutoff     =      45.0000  Ry
     charge density cutoff     =     180.0000  Ry
     scf convergence threshold =      1.0E-12
     mixing beta               =       0.5000
     number of iterations used =            8  plain     mixing
     Exchange-correlation= PBE
                           (   1   4   3   4   0   0   0)

     celldm(1)=  20.000000  celldm(2)=   0.000000  celldm(3)=   0.000000
     celldm(4)=   0.000000  celldm(5)=   0.000000  celldm(6)=   0.000000

     crystal axes: (cart. coord. in units of alat)
               a(1) = (   1.000000   0.000000   0.000000 )  
               a(2) = (   0.000000   1.000000   0.000000 )  
               a(3) = (   0.000000   0.000000   1.000000 )  

     reciprocal axes: (cart. coord. in units 2 pi/alat)
               b(1) = (  1.000000  0.000000  0.000000 )  
               b(2) = (  0.000000  1.000000  0.000000 )  
               b(3) = (  0.000000  0.000000  1.000000 )  


     PseudoPot. # 1 for C  read from file:
     /home/ciga/builds/pseudo_potentials/C.upf
     MD5 check sum: d80ec9912146af6c4c1760317d1f95e9
     Pseudo is Norm-conserving + core correction, Zval =  4.0
     Generated using ONCVPSP code by D. R. Hamann
     Using radial grid of 1248 points,  4 beta functions with: 
                l(1) =   0
                l(2) =   0
                l(3) =   1
                l(4) =   1

     PseudoPot. # 2 for O  read from file:
     /home/ciga/builds/pseudo_potentials/O.upf
     MD5 check sum: e357869f07dbe8d608261c380baea405
     Pseudo is Norm-conserving + core correction, Zval =  6.0
     Generated using ONCVPSP code by D. R. Hamann
     Using radial grid of  936 points,  5 beta functions with: 
                l(1) =   0
                l(2) =   0
                l(3) =   1
                l(4) =   1
                l(5) =   2

     PseudoPot. # 3 for H  read from file:
     /home/ciga/builds/pseudo_potentials/H.upf
     MD5 check sum: 418cee52d0c413ae40802e6cc37ab9e3
     Pseudo is Norm-conserving, Zval =  1.0
     Generated using ONCVPSP code by D. R. Hamann
     Using radial grid of 1166 points,  3 beta functions with: 
                l(1) =   0
                l(2) =   0
                l(3) =   1

     atomic species   valence    mass     pseudopotential
        C              4.00    12.01070     C ( 1.00)
        O              6.00    15.99940     O ( 1.00)
        H              1.00     1.00794     H ( 1.00)

     No symmetry found



   Cartesian axes

     site n.     atom                  positions (alat units)
         1           C   tau(   1) = (   0.0000000   0.0000000   0.0000000  )
         2           C   tau(   2) = (   0.0000000   0.0000000   0.1431468  )
         3           O   tau(   3) = (   0.0946708   0.0000000   0.2072437  )
         4           H   tau(   4) = (  -0.0963576   0.0000000   0.1886948  )
         5           H   tau(   5) = (  -0.0855762  -0.0494069  -0.0342985  )
         6           H   tau(   6) = (   0.0000000   0.0988138  -0.0342985  )
         7           H   tau(   7) = (   0.0855762  -0.0494069  -0.0342985  )

     number of k points=     1
                       cart. coord. in units 2pi/alat
        k(    1) = (   0.0000000   0.0000000   0.0000000), wk =   2.0000000

     Dense  grid:   163015 G-vectors     FFT dimensions: (  90,  90,  90)

     Estimated max dynamical RAM per process >      41.85 MB

     Estimated total dynamical RAM >     167.40 MB

     Check: negative core charge=   -0.000024

     Initial potential from superposition of free atoms

     starting charge   17.99987, renormalised to   18.00000

     negative rho (up, down):  4.720E-03 0.000E+00
     Starting wfcs are   16 randomized atomic wfcs

     total cpu time spent up to now is        0.8 secs

     Self-consistent Calculation

     iteration #  1     ecut=    45.00 Ry     beta= 0.50
     Davidson diagonalization with overlap
     ethr =  1.00E-02,  avg # of iterations =  2.0

     negative rho (up, down):  2.245E-03 0.000E+00

     total cpu time spent up to now is        1.4 secs

     total energy              =     -61.55756849 Ry
     estimated scf accuracy    <       0.72689855 Ry

     iteration #  2     ecut=    45.00 Ry     beta= 0.50
     Davidson diagonalization with overlap
     ethr =  4.04E-03,  avg # of iterations =  2.0

     negative rho (up, down):  1.054E-03 0.000E+00

     total cpu time spent up to now is        2.0 secs

     total energy              =     -61.68491838 Ry
     estimated scf accuracy    <       0.07123876 Ry

     iteration #  3     ecut=    45.00 Ry     beta= 0.50
     Davidson diagonalization with overlap
     ethr =  3.96E-04,  avg # of iterations =  2.0

     negative rho (up, down):  1.683E-04 0.000E+00

     total cpu time spent up to now is        2.6 secs

     total energy              =     -61.68465118 Ry
     estimated scf accuracy    <       0.01410431 Ry

     iteration #  4     ecut=    45.00 Ry     beta= 0.50
     Davidson diagonalization with overlap
     ethr =  7.84E-05,  avg # of iterations =  3.0

     negative rho (up, down):  3.561E-05 0.000E+00

     total cpu time spent up to now is        3.2 secs

     total energy              =     -61.68557111 Ry
     estimated scf accuracy    <       0.00293413 Ry

     iteration #  5     ecut=    45.00 Ry     beta= 0.50
     Davidson diagonalization with overlap
     ethr =  1.63E-05,  avg # of iterations =  5.0

     negative rho (up, down):  1.068E-05 0.000E+00

     total cpu time spent up to now is        3.9 secs

     total energy              =     -61.68602367 Ry
     estimated scf accuracy    <       0.00378802 Ry

     iteration #  6     ecut=    45.00 Ry     beta= 0.50
     Davidson diagonalization with overlap
     ethr =  1.63E-05,  avg # of iterations =  3.0

     negative rho (up, down):  7.689E-07 0.000E+00

     total cpu time spent up to now is        4.5 secs

     total energy              =     -61.68673355 Ry
     estimated scf accuracy    <       0.00003442 Ry

     iteration #  7     ecut=    45.00 Ry     beta= 0.50
     Davidson diagonalization with overlap
     ethr =  1.91E-07,  avg # of iterations =  6.0

     negative rho (up, down):  1.810E-08 0.000E+00

     total cpu time spent up to now is        5.3 secs

     total energy              =     -61.68676463 Ry
     estimated scf accuracy    <       0.00013101 Ry

     iteration #  8     ecut=    45.00 Ry     beta= 0.50
     Davidson diagonalization with overlap
     ethr =  1.91E-07,  avg # of iterations =  5.0

     total cpu time spent up to now is        6.0 secs

     total energy              =     -61.68678093 Ry
     estimated scf accuracy    <       0.00000253 Ry

     iteration #  9     ecut=    45.00 Ry     beta= 0.50
     Davidson diagonalization with overlap
     ethr =  1.41E-08,  avg # of iterations =  5.0

     total cpu time spent up to now is        6.7 secs

     total energy              =     -61.68678208 Ry
     estimated scf accuracy    <       0.00000158 Ry

     iteration # 10     ecut=    45.00 Ry     beta= 0.50
     Davidson diagonalization with overlap
     ethr =  8.78E-09,  avg # of iterations =  2.0

     total cpu time spent up to now is        7.3 secs

     total energy              =     -61.68678214 Ry
     estimated scf accuracy    <       0.00000027 Ry

     iteration # 11     ecut=    45.00 Ry     beta= 0.50
     Davidson diagonalization with overlap
     ethr =  1.50E-09,  avg # of iterations =  4.0

     total cpu time spent up to now is        7.9 secs

     total energy              =     -61.68678222 Ry
     estimated scf accuracy    <          8.9E-09 Ry

     iteration # 12     ecut=    45.00 Ry     beta= 0.50
     Davidson diagonalization with overlap
     ethr =  4.93E-11,  avg # of iterations =  5.0

     total cpu time spent up to now is        8.6 secs

     total energy              =     -61.68678222 Ry
     estimated scf accuracy    <          8.4E-09 Ry

     iteration # 13     ecut=    45.00 Ry     beta= 0.50
     Davidson diagonalization with overlap
     ethr =  4.69E-11,  avg # of iterations =  2.0

     total cpu time spent up to now is        9.2 secs

     total energy              =     -61.68678222 Ry
     estimated scf accuracy    <          2.7E-09 Ry

     iteration # 14     ecut=    45.00 Ry     beta= 0.50
     Davidson diagonalization with overlap
     ethr =  1.49E-11,  avg # of iterations =  3.0

     total cpu time spent up to now is        9.8 secs

     total energy              =     -61.68678222 Ry
     estimated scf accuracy    <          3.7E-11 Ry

     iteration # 15     ecut=    45.00 Ry     beta= 0.50
     Davidson diagonalization with overlap
     ethr =  2.08E-13,  avg # of iterations =  6.0

     total cpu time spent up to now is       10.6 secs

     total energy              =     -61.68678222 Ry
     estimated scf accuracy    <          5.8E-11 Ry

     iteration # 16     ecut=    45.00 Ry     beta= 0.50
     Davidson diagonalization with overlap
     ethr =  2.08E-13,  avg # of iterations =  4.0

     total cpu time spent up to now is       11.2 secs

     total energy              =     -61.68678222 Ry
     estimated scf accuracy    <          3.4E-12 Ry

     iteration # 17     ecut=    45.00 Ry     beta= 0.50
     Davidson diagonalization with overlap
     ethr =  1.00E-13,  avg # of iterations =  1.0

     total cpu time spent up to now is       11.7 secs

     End of self-consistent calculation

          k = 0.0000 0.0000 0.0000 ( 20326 PWs)   bands (ev):

   -26.3124 -18.4270 -14.0301 -11.4160 -10.8031 -10.3822  -9.3461  -8.8387
    -5.6765

     highest occupied level (ev):    -5.6765

!    total energy              =     -61.68678222 Ry
     estimated scf accuracy    <          2.3E-13 Ry

     The total energy is the sum of the following terms:
     one-electron contribution =    -156.12849282 Ry
     hartree contribution      =      80.63112653 Ry
     xc contribution           =     -19.53311307 Ry
     ewald contribution        =      33.34369714 Ry

     convergence has been achieved in  17 iterations

     Forces acting on atoms (cartesian axes, Ry/au):

     atom    1 type  1   force =     0.00126134   -0.01646646    0.00042081
     atom    2 type  1   force =     0.00114020    0.00211954    0.00308908
     atom    3 type  2   force =    -0.00583410   -0.00078837   -0.00211476
     atom    4 type  3   force =     0.00569113    0.00206296   -0.00182233
     atom    5 type  3   force =     0.00876628    0.01111000   -0.00171218
     atom    6 type  3   force =    -0.00206865   -0.01001145    0.00065215
     atom    7 type  3   force =    -0.00895620    0.01197378    0.00148723

     Total force =     0.030021     Total SCF correction =     0.000001

     Writing output data file ./Acetaldehyde.save/

     init_run     :      0.66s CPU      0.71s WALL (       1 calls)
     electrons    :     10.64s CPU     10.93s WALL (       1 calls)
     forces       :      0.43s CPU      0.45s WALL (       1 calls)

     Called by init_run:
     wfcinit      :      0.16s CPU      0.17s WALL (       1 calls)
     potinit      :      0.31s CPU      0.34s WALL (       1 calls)
     hinit0       :      0.15s CPU      0.16s WALL (       1 calls)

     Called by electrons:
     c_bands      :      5.37s CPU      5.42s WALL (      17 calls)
     sum_band     :      1.40s CPU      1.42s WALL (      17 calls)
     v_of_rho     :      3.25s CPU      3.49s WALL (      18 calls)
     mix_rho      :      0.68s CPU      0.69s WALL (      17 calls)

     Called by c_bands:
     init_us_2    :      0.10s CPU      0.10s WALL (      35 calls)
     regterg      :      5.25s CPU      5.29s WALL (      17 calls)

     Called by *egterg:
     rdiaghg      :      0.04s CPU      0.04s WALL (      77 calls)
     h_psi        :      4.91s CPU      4.96s WALL (      78 calls)
     g_psi        :      0.01s CPU      0.01s WALL (      60 calls)

     Called by h_psi:
     h_psi:calbec :      0.37s CPU      0.37s WALL (      78 calls)
     vloc_psi     :      4.25s CPU      4.29s WALL (      78 calls)
     add_vuspsi   :      0.28s CPU      0.28s WALL (      78 calls)

     General routines
     calbec       :      0.39s CPU      0.39s WALL (      82 calls)
     fft          :      2.04s CPU      2.08s WALL (     152 calls)
     ffts         :      0.23s CPU      0.23s WALL (      17 calls)
     fftw         :      4.03s CPU      4.07s WALL (     625 calls)

     Parallel routines

     PWSCF        :     11.80s CPU     12.18s WALL


   This run was terminated on:   7:11:39  24May2021            

=------------------------------------------------------------------------------=
   JOB DONE.
=------------------------------------------------------------------------------=
