
     Program PWSCF v.6.7GPU starts on 24May2021 at  7:14: 6 

     This program is part of the open-source Quantum ESPRESSO suite
     for quantum simulation of materials; please cite
         "P. Giannozzi et al., J. Phys.:Condens. Matter 21 395502 (2009);
         "P. Giannozzi et al., J. Phys.:Condens. Matter 29 465901 (2017);
         "P. Giannozzi et al., J. Chem. Phys. 152 154105 (2020);
          URL http://www.quantum-espresso.org", 
     in publications or presentations arising from this work. More details at
     http://www.quantum-espresso.org/quote

     Parallel version (MPI), running on     4 processors

     MPI processes distributed on     1 nodes
     R & G space division:  proc/nbgrp/npool/nimage =       4
     Waiting for input...
     Reading input from standard input
     Message from routine read_cards :
     DEPRECATED: no units specified in CELL_PARAMETERS card

     Current dimensions of program PWSCF are:
     Max number of different atomic species (ntypx) = 10
     Max number of k-points (npk) =  40000
     Max angular momentum in pseudopotentials (lmaxx) =  3

     gamma-point specific algorithms are used

     Subspace diagonalization in iterative solution of the eigenvalue problem:
     one sub-group per band group will be used
     scalapack distributed-memory algorithm (size of sub-group:  2*  2 procs)


     Parallelization info
     --------------------
     sticks:   dense  smooth     PW     G-vecs:    dense   smooth      PW
     Min        2700    2700    675               211636   211636   26505
     Max        2704    2704    678               211641   211641   26514
     Sum       10805   10805   2709               846553   846553  106047

     Using Slab Decomposition



     bravais-lattice index     =            0
     lattice parameter (alat)  =      20.0000  a.u.
     unit-cell volume          =    8000.0000 (a.u.)^3
     number of atoms/cell      =            7
     number of atomic types    =            3
     number of electrons       =        18.00
     number of Kohn-Sham states=            9
     kinetic-energy cutoff     =      85.0000  Ry
     charge density cutoff     =     340.0000  Ry
     scf convergence threshold =      1.0E-12
     mixing beta               =       0.5000
     number of iterations used =            8  plain     mixing
     Exchange-correlation= PBE
                           (   1   4   3   4   0   0   0)

     celldm(1)=  20.000000  celldm(2)=   0.000000  celldm(3)=   0.000000
     celldm(4)=   0.000000  celldm(5)=   0.000000  celldm(6)=   0.000000

     crystal axes: (cart. coord. in units of alat)
               a(1) = (   1.000000   0.000000   0.000000 )  
               a(2) = (   0.000000   1.000000   0.000000 )  
               a(3) = (   0.000000   0.000000   1.000000 )  

     reciprocal axes: (cart. coord. in units 2 pi/alat)
               b(1) = (  1.000000  0.000000  0.000000 )  
               b(2) = (  0.000000  1.000000  0.000000 )  
               b(3) = (  0.000000  0.000000  1.000000 )  


     PseudoPot. # 1 for C  read from file:
     /home/ciga/builds/pseudo_potentials/C.upf
     MD5 check sum: d80ec9912146af6c4c1760317d1f95e9
     Pseudo is Norm-conserving + core correction, Zval =  4.0
     Generated using ONCVPSP code by D. R. Hamann
     Using radial grid of 1248 points,  4 beta functions with: 
                l(1) =   0
                l(2) =   0
                l(3) =   1
                l(4) =   1

     PseudoPot. # 2 for O  read from file:
     /home/ciga/builds/pseudo_potentials/O.upf
     MD5 check sum: e357869f07dbe8d608261c380baea405
     Pseudo is Norm-conserving + core correction, Zval =  6.0
     Generated using ONCVPSP code by D. R. Hamann
     Using radial grid of  936 points,  5 beta functions with: 
                l(1) =   0
                l(2) =   0
                l(3) =   1
                l(4) =   1
                l(5) =   2

     PseudoPot. # 3 for H  read from file:
     /home/ciga/builds/pseudo_potentials/H.upf
     MD5 check sum: 418cee52d0c413ae40802e6cc37ab9e3
     Pseudo is Norm-conserving, Zval =  1.0
     Generated using ONCVPSP code by D. R. Hamann
     Using radial grid of 1166 points,  3 beta functions with: 
                l(1) =   0
                l(2) =   0
                l(3) =   1

     atomic species   valence    mass     pseudopotential
        C              4.00    12.01070     C ( 1.00)
        O              6.00    15.99940     O ( 1.00)
        H              1.00     1.00794     H ( 1.00)

     No symmetry found



   Cartesian axes

     site n.     atom                  positions (alat units)
         1           C   tau(   1) = (   0.0000000   0.0000000   0.0000000  )
         2           C   tau(   2) = (   0.0000000   0.0000000   0.1431468  )
         3           O   tau(   3) = (   0.0946708   0.0000000   0.2072437  )
         4           H   tau(   4) = (  -0.0963576   0.0000000   0.1886948  )
         5           H   tau(   5) = (  -0.0855762  -0.0494069  -0.0342985  )
         6           H   tau(   6) = (   0.0000000   0.0988138  -0.0342985  )
         7           H   tau(   7) = (   0.0855762  -0.0494069  -0.0342985  )

     number of k points=     1
                       cart. coord. in units 2pi/alat
        k(    1) = (   0.0000000   0.0000000   0.0000000), wk =   2.0000000

     Dense  grid:   423277 G-vectors     FFT dimensions: ( 120, 120, 120)

     Estimated max dynamical RAM per process >     102.28 MB

     Estimated total dynamical RAM >     409.11 MB

     Initial potential from superposition of free atoms

     starting charge   17.99987, renormalised to   18.00000

     negative rho (up, down):  3.795E-05 0.000E+00
     Starting wfcs are   16 randomized atomic wfcs

     total cpu time spent up to now is        1.6 secs

     Self-consistent Calculation

     iteration #  1     ecut=    85.00 Ry     beta= 0.50
     Davidson diagonalization with overlap
     ethr =  1.00E-02,  avg # of iterations =  2.0

     negative rho (up, down):  8.205E-06 0.000E+00

     total cpu time spent up to now is        3.1 secs

     total energy              =     -61.67853071 Ry
     estimated scf accuracy    <       0.80214920 Ry

     iteration #  2     ecut=    85.00 Ry     beta= 0.50
     Davidson diagonalization with overlap
     ethr =  4.46E-03,  avg # of iterations =  3.0

     negative rho (up, down):  2.033E-06 0.000E+00

     total cpu time spent up to now is        4.5 secs

     total energy              =     -61.81591453 Ry
     estimated scf accuracy    <       0.12801571 Ry

     iteration #  3     ecut=    85.00 Ry     beta= 0.50
     Davidson diagonalization with overlap
     ethr =  7.11E-04,  avg # of iterations =  4.0

     negative rho (up, down):  7.077E-07 0.000E+00

     total cpu time spent up to now is        5.9 secs

     total energy              =     -61.83307388 Ry
     estimated scf accuracy    <       0.02561954 Ry

     iteration #  4     ecut=    85.00 Ry     beta= 0.50
     Davidson diagonalization with overlap
     ethr =  1.42E-04,  avg # of iterations =  3.0

     negative rho (up, down):  2.043E-08 0.000E+00

     total cpu time spent up to now is        7.2 secs

     total energy              =     -61.83461190 Ry
     estimated scf accuracy    <       0.00357769 Ry

     iteration #  5     ecut=    85.00 Ry     beta= 0.50
     Davidson diagonalization with overlap
     ethr =  1.99E-05,  avg # of iterations =  2.0

     total cpu time spent up to now is        8.6 secs

     total energy              =     -61.83496676 Ry
     estimated scf accuracy    <       0.00078134 Ry

     iteration #  6     ecut=    85.00 Ry     beta= 0.50
     Davidson diagonalization with overlap
     ethr =  4.34E-06,  avg # of iterations =  4.0

     total cpu time spent up to now is       10.1 secs

     total energy              =     -61.83519014 Ry
     estimated scf accuracy    <       0.00015743 Ry

     iteration #  7     ecut=    85.00 Ry     beta= 0.50
     Davidson diagonalization with overlap
     ethr =  8.75E-07,  avg # of iterations =  2.0

     total cpu time spent up to now is       11.4 secs

     total energy              =     -61.83518400 Ry
     estimated scf accuracy    <       0.00002887 Ry

     iteration #  8     ecut=    85.00 Ry     beta= 0.50
     Davidson diagonalization with overlap
     ethr =  1.60E-07,  avg # of iterations =  5.0

     total cpu time spent up to now is       13.1 secs

     total energy              =     -61.83519692 Ry
     estimated scf accuracy    <       0.00003192 Ry

     iteration #  9     ecut=    85.00 Ry     beta= 0.50
     Davidson diagonalization with overlap
     ethr =  1.60E-07,  avg # of iterations =  3.0

     total cpu time spent up to now is       14.5 secs

     total energy              =     -61.83520023 Ry
     estimated scf accuracy    <       0.00000214 Ry

     iteration # 10     ecut=    85.00 Ry     beta= 0.50
     Davidson diagonalization with overlap
     ethr =  1.19E-08,  avg # of iterations =  4.0

     total cpu time spent up to now is       16.0 secs

     total energy              =     -61.83520105 Ry
     estimated scf accuracy    <       0.00000004 Ry

     iteration # 11     ecut=    85.00 Ry     beta= 0.50
     Davidson diagonalization with overlap
     ethr =  2.24E-10,  avg # of iterations =  5.0

     total cpu time spent up to now is       17.8 secs

     total energy              =     -61.83520109 Ry
     estimated scf accuracy    <          8.9E-09 Ry

     iteration # 12     ecut=    85.00 Ry     beta= 0.50
     Davidson diagonalization with overlap
     ethr =  4.92E-11,  avg # of iterations =  4.0

     total cpu time spent up to now is       19.4 secs

     total energy              =     -61.83520109 Ry
     estimated scf accuracy    <          9.4E-09 Ry

     iteration # 13     ecut=    85.00 Ry     beta= 0.50
     Davidson diagonalization with overlap
     ethr =  4.92E-11,  avg # of iterations =  3.0

     total cpu time spent up to now is       20.9 secs

     total energy              =     -61.83520109 Ry
     estimated scf accuracy    <          1.0E-09 Ry

     iteration # 14     ecut=    85.00 Ry     beta= 0.50
     Davidson diagonalization with overlap
     ethr =  5.63E-12,  avg # of iterations =  5.0

     total cpu time spent up to now is       22.4 secs

     total energy              =     -61.83520109 Ry
     estimated scf accuracy    <          1.2E-09 Ry

     iteration # 15     ecut=    85.00 Ry     beta= 0.50
     Davidson diagonalization with overlap
     ethr =  5.63E-12,  avg # of iterations =  3.0

     total cpu time spent up to now is       23.7 secs

     total energy              =     -61.83520109 Ry
     estimated scf accuracy    <          9.9E-11 Ry

     iteration # 16     ecut=    85.00 Ry     beta= 0.50
     Davidson diagonalization with overlap
     ethr =  5.51E-13,  avg # of iterations =  4.0

     total cpu time spent up to now is       25.3 secs

     total energy              =     -61.83520109 Ry
     estimated scf accuracy    <          7.4E-12 Ry

     iteration # 17     ecut=    85.00 Ry     beta= 0.50
     Davidson diagonalization with overlap
     ethr =  1.00E-13,  avg # of iterations =  2.0

     total cpu time spent up to now is       26.5 secs

     End of self-consistent calculation

          k = 0.0000 0.0000 0.0000 ( 53024 PWs)   bands (ev):

   -26.0488 -18.3500 -13.9564 -11.3685 -10.7854 -10.3316  -9.3360  -8.8136
    -5.6624

     highest occupied level (ev):    -5.6624

!    total energy              =     -61.83520109 Ry
     estimated scf accuracy    <          2.1E-13 Ry

     The total energy is the sum of the following terms:
     one-electron contribution =    -156.45312183 Ry
     hartree contribution      =      80.86422668 Ry
     xc contribution           =     -19.59000312 Ry
     ewald contribution        =      33.34369718 Ry

     convergence has been achieved in  17 iterations

     Forces acting on atoms (cartesian axes, Ry/au):

     atom    1 type  1   force =     0.00091268   -0.01633478    0.00414954
     atom    2 type  1   force =    -0.00514327    0.00206441   -0.00509542
     atom    3 type  2   force =    -0.00070149   -0.00078232    0.00228298
     atom    4 type  3   force =     0.00767401    0.00205690   -0.00204956
     atom    5 type  3   force =     0.00918576    0.01139029   -0.00152823
     atom    6 type  3   force =    -0.00219620   -0.01071786    0.00074881
     atom    7 type  3   force =    -0.00973150    0.01232336    0.00149188

     Total force =     0.031634     Total SCF correction =     0.000000

     Writing output data file ./Acetaldehyde.save/

     init_run     :      1.44s CPU      1.53s WALL (       1 calls)
     electrons    :     24.26s CPU     24.85s WALL (       1 calls)
     forces       :      0.92s CPU      0.94s WALL (       1 calls)

     Called by init_run:
     wfcinit      :      0.38s CPU      0.39s WALL (       1 calls)
     potinit      :      0.61s CPU      0.66s WALL (       1 calls)
     hinit0       :      0.26s CPU      0.28s WALL (       1 calls)

     Called by electrons:
     c_bands      :     12.50s CPU     12.58s WALL (      17 calls)
     sum_band     :      3.32s CPU      3.35s WALL (      17 calls)
     v_of_rho     :      6.54s CPU      7.02s WALL (      18 calls)
     mix_rho      :      2.05s CPU      2.09s WALL (      17 calls)

     Called by c_bands:
     init_us_2    :      0.24s CPU      0.26s WALL (      35 calls)
     regterg      :     12.20s CPU     12.28s WALL (      17 calls)

     Called by *egterg:
     rdiaghg      :      0.04s CPU      0.04s WALL (      75 calls)
     h_psi        :     11.10s CPU     11.18s WALL (      76 calls)
     g_psi        :      0.03s CPU      0.03s WALL (      58 calls)

     Called by h_psi:
     h_psi:calbec :      0.87s CPU      0.88s WALL (      76 calls)
     vloc_psi     :      9.44s CPU      9.51s WALL (      76 calls)
     add_vuspsi   :      0.71s CPU      0.72s WALL (      76 calls)

     General routines
     calbec       :      0.94s CPU      0.95s WALL (      80 calls)
     fft          :      4.75s CPU      4.89s WALL (     152 calls)
     ffts         :      0.51s CPU      0.51s WALL (      17 calls)
     fftw         :      8.82s CPU      8.88s WALL (     615 calls)

     Parallel routines

     PWSCF        :     26.74s CPU     27.48s WALL


   This run was terminated on:   7:14:34  24May2021            

=------------------------------------------------------------------------------=
   JOB DONE.
=------------------------------------------------------------------------------=
