
     Program PWSCF v.6.7GPU starts on 24May2021 at  7:15: 7 

     This program is part of the open-source Quantum ESPRESSO suite
     for quantum simulation of materials; please cite
         "P. Giannozzi et al., J. Phys.:Condens. Matter 21 395502 (2009);
         "P. Giannozzi et al., J. Phys.:Condens. Matter 29 465901 (2017);
         "P. Giannozzi et al., J. Chem. Phys. 152 154105 (2020);
          URL http://www.quantum-espresso.org", 
     in publications or presentations arising from this work. More details at
     http://www.quantum-espresso.org/quote

     Parallel version (MPI), running on     4 processors

     MPI processes distributed on     1 nodes
     R & G space division:  proc/nbgrp/npool/nimage =       4
     Waiting for input...
     Reading input from standard input
     Message from routine read_cards :
     DEPRECATED: no units specified in CELL_PARAMETERS card

     Current dimensions of program PWSCF are:
     Max number of different atomic species (ntypx) = 10
     Max number of k-points (npk) =  40000
     Max angular momentum in pseudopotentials (lmaxx) =  3

     gamma-point specific algorithms are used

     Subspace diagonalization in iterative solution of the eigenvalue problem:
     one sub-group per band group will be used
     scalapack distributed-memory algorithm (size of sub-group:  2*  2 procs)


     Parallelization info
     --------------------
     sticks:   dense  smooth     PW     G-vecs:    dense   smooth      PW
     Min        3022    3022    754               250214   250214   31205
     Max        3024    3024    755               250219   250219   31206
     Sum       12093   12093   3017              1000865  1000865  124823

     Using Slab Decomposition



     bravais-lattice index     =            0
     lattice parameter (alat)  =      20.0000  a.u.
     unit-cell volume          =    8000.0000 (a.u.)^3
     number of atoms/cell      =            7
     number of atomic types    =            3
     number of electrons       =        18.00
     number of Kohn-Sham states=            9
     kinetic-energy cutoff     =      95.0000  Ry
     charge density cutoff     =     380.0000  Ry
     scf convergence threshold =      1.0E-12
     mixing beta               =       0.5000
     number of iterations used =            8  plain     mixing
     Exchange-correlation= PBE
                           (   1   4   3   4   0   0   0)

     celldm(1)=  20.000000  celldm(2)=   0.000000  celldm(3)=   0.000000
     celldm(4)=   0.000000  celldm(5)=   0.000000  celldm(6)=   0.000000

     crystal axes: (cart. coord. in units of alat)
               a(1) = (   1.000000   0.000000   0.000000 )  
               a(2) = (   0.000000   1.000000   0.000000 )  
               a(3) = (   0.000000   0.000000   1.000000 )  

     reciprocal axes: (cart. coord. in units 2 pi/alat)
               b(1) = (  1.000000  0.000000  0.000000 )  
               b(2) = (  0.000000  1.000000  0.000000 )  
               b(3) = (  0.000000  0.000000  1.000000 )  


     PseudoPot. # 1 for C  read from file:
     /home/ciga/builds/pseudo_potentials/C.upf
     MD5 check sum: d80ec9912146af6c4c1760317d1f95e9
     Pseudo is Norm-conserving + core correction, Zval =  4.0
     Generated using ONCVPSP code by D. R. Hamann
     Using radial grid of 1248 points,  4 beta functions with: 
                l(1) =   0
                l(2) =   0
                l(3) =   1
                l(4) =   1

     PseudoPot. # 2 for O  read from file:
     /home/ciga/builds/pseudo_potentials/O.upf
     MD5 check sum: e357869f07dbe8d608261c380baea405
     Pseudo is Norm-conserving + core correction, Zval =  6.0
     Generated using ONCVPSP code by D. R. Hamann
     Using radial grid of  936 points,  5 beta functions with: 
                l(1) =   0
                l(2) =   0
                l(3) =   1
                l(4) =   1
                l(5) =   2

     PseudoPot. # 3 for H  read from file:
     /home/ciga/builds/pseudo_potentials/H.upf
     MD5 check sum: 418cee52d0c413ae40802e6cc37ab9e3
     Pseudo is Norm-conserving, Zval =  1.0
     Generated using ONCVPSP code by D. R. Hamann
     Using radial grid of 1166 points,  3 beta functions with: 
                l(1) =   0
                l(2) =   0
                l(3) =   1

     atomic species   valence    mass     pseudopotential
        C              4.00    12.01070     C ( 1.00)
        O              6.00    15.99940     O ( 1.00)
        H              1.00     1.00794     H ( 1.00)

     No symmetry found



   Cartesian axes

     site n.     atom                  positions (alat units)
         1           C   tau(   1) = (   0.0000000   0.0000000   0.0000000  )
         2           C   tau(   2) = (   0.0000000   0.0000000   0.1431468  )
         3           O   tau(   3) = (   0.0946708   0.0000000   0.2072437  )
         4           H   tau(   4) = (  -0.0963576   0.0000000   0.1886948  )
         5           H   tau(   5) = (  -0.0855762  -0.0494069  -0.0342985  )
         6           H   tau(   6) = (   0.0000000   0.0988138  -0.0342985  )
         7           H   tau(   7) = (   0.0855762  -0.0494069  -0.0342985  )

     number of k points=     1
                       cart. coord. in units 2pi/alat
        k(    1) = (   0.0000000   0.0000000   0.0000000), wk =   2.0000000

     Dense  grid:   500433 G-vectors     FFT dimensions: ( 125, 125, 125)

     Estimated max dynamical RAM per process >     119.77 MB

     Estimated total dynamical RAM >     479.10 MB

     Initial potential from superposition of free atoms

     starting charge   17.99987, renormalised to   18.00000

     negative rho (up, down):  2.146E-05 0.000E+00
     Starting wfcs are   16 randomized atomic wfcs

     total cpu time spent up to now is        1.9 secs

     Self-consistent Calculation

     iteration #  1     ecut=    95.00 Ry     beta= 0.50
     Davidson diagonalization with overlap
     ethr =  1.00E-02,  avg # of iterations =  2.0

     negative rho (up, down):  2.660E-06 0.000E+00

     total cpu time spent up to now is        3.6 secs

     total energy              =     -61.67919647 Ry
     estimated scf accuracy    <       0.80097468 Ry

     iteration #  2     ecut=    95.00 Ry     beta= 0.50
     Davidson diagonalization with overlap
     ethr =  4.45E-03,  avg # of iterations =  3.0

     negative rho (up, down):  4.239E-07 0.000E+00

     total cpu time spent up to now is        5.3 secs

     total energy              =     -61.81602740 Ry
     estimated scf accuracy    <       0.12755263 Ry

     iteration #  3     ecut=    95.00 Ry     beta= 0.50
     Davidson diagonalization with overlap
     ethr =  7.09E-04,  avg # of iterations =  4.0

     negative rho (up, down):  1.287E-07 0.000E+00

     total cpu time spent up to now is        7.0 secs

     total energy              =     -61.83311063 Ry
     estimated scf accuracy    <       0.02570994 Ry

     iteration #  4     ecut=    95.00 Ry     beta= 0.50
     Davidson diagonalization with overlap
     ethr =  1.43E-04,  avg # of iterations =  3.0

     total cpu time spent up to now is        8.6 secs

     total energy              =     -61.83465440 Ry
     estimated scf accuracy    <       0.00358632 Ry

     iteration #  5     ecut=    95.00 Ry     beta= 0.50
     Davidson diagonalization with overlap
     ethr =  1.99E-05,  avg # of iterations =  2.0

     total cpu time spent up to now is       10.3 secs

     total energy              =     -61.83501164 Ry
     estimated scf accuracy    <       0.00078703 Ry

     iteration #  6     ecut=    95.00 Ry     beta= 0.50
     Davidson diagonalization with overlap
     ethr =  4.37E-06,  avg # of iterations =  4.0

     total cpu time spent up to now is       12.1 secs

     total energy              =     -61.83523687 Ry
     estimated scf accuracy    <       0.00014907 Ry

     iteration #  7     ecut=    95.00 Ry     beta= 0.50
     Davidson diagonalization with overlap
     ethr =  8.28E-07,  avg # of iterations =  2.0

     total cpu time spent up to now is       13.6 secs

     total energy              =     -61.83522887 Ry
     estimated scf accuracy    <       0.00002980 Ry

     iteration #  8     ecut=    95.00 Ry     beta= 0.50
     Davidson diagonalization with overlap
     ethr =  1.66E-07,  avg # of iterations =  5.0

     total cpu time spent up to now is       15.6 secs

     total energy              =     -61.83524215 Ry
     estimated scf accuracy    <       0.00003067 Ry

     iteration #  9     ecut=    95.00 Ry     beta= 0.50
     Davidson diagonalization with overlap
     ethr =  1.66E-07,  avg # of iterations =  3.0

     total cpu time spent up to now is       17.2 secs

     total energy              =     -61.83524505 Ry
     estimated scf accuracy    <       0.00000237 Ry

     iteration # 10     ecut=    95.00 Ry     beta= 0.50
     Davidson diagonalization with overlap
     ethr =  1.32E-08,  avg # of iterations =  4.0

     total cpu time spent up to now is       19.0 secs

     total energy              =     -61.83524585 Ry
     estimated scf accuracy    <       0.00000006 Ry

     iteration # 11     ecut=    95.00 Ry     beta= 0.50
     Davidson diagonalization with overlap
     ethr =  3.48E-10,  avg # of iterations =  5.0

     total cpu time spent up to now is       21.1 secs

     total energy              =     -61.83524590 Ry
     estimated scf accuracy    <          8.9E-09 Ry

     iteration # 12     ecut=    95.00 Ry     beta= 0.50
     Davidson diagonalization with overlap
     ethr =  4.95E-11,  avg # of iterations =  5.0

     total cpu time spent up to now is       23.1 secs

     total energy              =     -61.83524590 Ry
     estimated scf accuracy    <       0.00000002 Ry

     iteration # 13     ecut=    95.00 Ry     beta= 0.50
     Davidson diagonalization with overlap
     ethr =  4.95E-11,  avg # of iterations =  3.0

     total cpu time spent up to now is       24.7 secs

     total energy              =     -61.83524590 Ry
     estimated scf accuracy    <          1.5E-09 Ry

     iteration # 14     ecut=    95.00 Ry     beta= 0.50
     Davidson diagonalization with overlap
     ethr =  8.26E-12,  avg # of iterations =  6.0

     total cpu time spent up to now is       26.8 secs

     total energy              =     -61.83524590 Ry
     estimated scf accuracy    <          1.8E-09 Ry

     iteration # 15     ecut=    95.00 Ry     beta= 0.50
     Davidson diagonalization with overlap
     ethr =  8.26E-12,  avg # of iterations =  3.0

     total cpu time spent up to now is       28.4 secs

     total energy              =     -61.83524590 Ry
     estimated scf accuracy    <          2.8E-10 Ry

     iteration # 16     ecut=    95.00 Ry     beta= 0.50
     Davidson diagonalization with overlap
     ethr =  1.56E-12,  avg # of iterations =  4.0

     total cpu time spent up to now is       30.2 secs

     total energy              =     -61.83524590 Ry
     estimated scf accuracy    <          3.7E-11 Ry

     iteration # 17     ecut=    95.00 Ry     beta= 0.50
     Davidson diagonalization with overlap
     ethr =  2.04E-13,  avg # of iterations =  2.0

     total cpu time spent up to now is       31.8 secs

     total energy              =     -61.83524590 Ry
     estimated scf accuracy    <          1.7E-11 Ry

     iteration # 18     ecut=    95.00 Ry     beta= 0.50
     Davidson diagonalization with overlap
     ethr =  1.00E-13,  avg # of iterations =  4.0

     total cpu time spent up to now is       33.3 secs

     End of self-consistent calculation

          k = 0.0000 0.0000 0.0000 ( 62412 PWs)   bands (ev):

   -26.0487 -18.3499 -13.9564 -11.3684 -10.7854 -10.3316  -9.3360  -8.8135
    -5.6624

     highest occupied level (ev):    -5.6624

!    total energy              =     -61.83524590 Ry
     estimated scf accuracy    <          7.4E-14 Ry

     The total energy is the sum of the following terms:
     one-electron contribution =    -156.45317716 Ry
     hartree contribution      =      80.86427717 Ry
     xc contribution           =     -19.59004309 Ry
     ewald contribution        =      33.34369718 Ry

     convergence has been achieved in  18 iterations

     Forces acting on atoms (cartesian axes, Ry/au):

     atom    1 type  1   force =     0.00089823   -0.01633422    0.00414649
     atom    2 type  1   force =    -0.00515267    0.00206506   -0.00508617
     atom    3 type  2   force =    -0.00062374   -0.00078280    0.00226240
     atom    4 type  3   force =     0.00766296    0.00205682   -0.00204810
     atom    5 type  3   force =     0.00917543    0.01139236   -0.00152394
     atom    6 type  3   force =    -0.00221048   -0.01072267    0.00075309
     atom    7 type  3   force =    -0.00974974    0.01232545    0.00149623

     Total force =     0.031634     Total SCF correction =     0.000000

     Writing output data file ./Acetaldehyde.save/

     init_run     :      1.70s CPU      1.81s WALL (       1 calls)
     electrons    :     30.72s CPU     31.43s WALL (       1 calls)
     forces       :      1.04s CPU      1.11s WALL (       1 calls)

     Called by init_run:
     wfcinit      :      0.48s CPU      0.49s WALL (       1 calls)
     potinit      :      0.69s CPU      0.76s WALL (       1 calls)
     hinit0       :      0.32s CPU      0.35s WALL (       1 calls)

     Called by electrons:
     c_bands      :     16.22s CPU     16.33s WALL (      18 calls)
     sum_band     :      4.13s CPU      4.16s WALL (      18 calls)
     v_of_rho     :      7.96s CPU      8.55s WALL (      19 calls)
     mix_rho      :      2.58s CPU      2.60s WALL (      18 calls)

     Called by c_bands:
     init_us_2    :      0.32s CPU      0.32s WALL (      37 calls)
     regterg      :     15.84s CPU     15.95s WALL (      18 calls)

     Called by *egterg:
     rdiaghg      :      0.04s CPU      0.04s WALL (      82 calls)
     h_psi        :     14.47s CPU     14.58s WALL (      83 calls)
     g_psi        :      0.03s CPU      0.04s WALL (      64 calls)

     Called by h_psi:
     h_psi:calbec :      1.10s CPU      1.10s WALL (      83 calls)
     vloc_psi     :     12.41s CPU     12.50s WALL (      83 calls)
     add_vuspsi   :      0.89s CPU      0.89s WALL (      83 calls)

     General routines
     calbec       :      1.18s CPU      1.18s WALL (      87 calls)
     fft          :      5.80s CPU      5.95s WALL (     160 calls)
     ffts         :      0.66s CPU      0.66s WALL (      18 calls)
     fftw         :     11.76s CPU     11.84s WALL (     646 calls)

     Parallel routines

     PWSCF        :     33.57s CPU     34.48s WALL


   This run was terminated on:   7:15:41  24May2021            

=------------------------------------------------------------------------------=
   JOB DONE.
=------------------------------------------------------------------------------=
