
     Program PWSCF v.6.7GPU starts on 24May2021 at  7:11:18 

     This program is part of the open-source Quantum ESPRESSO suite
     for quantum simulation of materials; please cite
         "P. Giannozzi et al., J. Phys.:Condens. Matter 21 395502 (2009);
         "P. Giannozzi et al., J. Phys.:Condens. Matter 29 465901 (2017);
         "P. Giannozzi et al., J. Chem. Phys. 152 154105 (2020);
          URL http://www.quantum-espresso.org", 
     in publications or presentations arising from this work. More details at
     http://www.quantum-espresso.org/quote

     Parallel version (MPI), running on     4 processors

     MPI processes distributed on     1 nodes
     R & G space division:  proc/nbgrp/npool/nimage =       4
     Waiting for input...
     Reading input from standard input
     Message from routine read_cards :
     DEPRECATED: no units specified in CELL_PARAMETERS card

     Current dimensions of program PWSCF are:
     Max number of different atomic species (ntypx) = 10
     Max number of k-points (npk) =  40000
     Max angular momentum in pseudopotentials (lmaxx) =  3

     gamma-point specific algorithms are used

     Subspace diagonalization in iterative solution of the eigenvalue problem:
     one sub-group per band group will be used
     scalapack distributed-memory algorithm (size of sub-group:  2*  2 procs)


     Parallelization info
     --------------------
     sticks:   dense  smooth     PW     G-vecs:    dense   smooth      PW
     Min        1271    1271    317                68355    68355    8565
     Max        1276    1276    322                68358    68358    8568
     Sum        5097    5097   1281               273425   273425   34265

     Using Slab Decomposition



     bravais-lattice index     =            0
     lattice parameter (alat)  =      20.0000  a.u.
     unit-cell volume          =    8000.0000 (a.u.)^3
     number of atoms/cell      =            7
     number of atomic types    =            3
     number of electrons       =        18.00
     number of Kohn-Sham states=            9
     kinetic-energy cutoff     =      40.0000  Ry
     charge density cutoff     =     160.0000  Ry
     scf convergence threshold =      1.0E-12
     mixing beta               =       0.5000
     number of iterations used =            8  plain     mixing
     Exchange-correlation= PBE
                           (   1   4   3   4   0   0   0)

     celldm(1)=  20.000000  celldm(2)=   0.000000  celldm(3)=   0.000000
     celldm(4)=   0.000000  celldm(5)=   0.000000  celldm(6)=   0.000000

     crystal axes: (cart. coord. in units of alat)
               a(1) = (   1.000000   0.000000   0.000000 )  
               a(2) = (   0.000000   1.000000   0.000000 )  
               a(3) = (   0.000000   0.000000   1.000000 )  

     reciprocal axes: (cart. coord. in units 2 pi/alat)
               b(1) = (  1.000000  0.000000  0.000000 )  
               b(2) = (  0.000000  1.000000  0.000000 )  
               b(3) = (  0.000000  0.000000  1.000000 )  


     PseudoPot. # 1 for C  read from file:
     /home/ciga/builds/pseudo_potentials/C.upf
     MD5 check sum: d80ec9912146af6c4c1760317d1f95e9
     Pseudo is Norm-conserving + core correction, Zval =  4.0
     Generated using ONCVPSP code by D. R. Hamann
     Using radial grid of 1248 points,  4 beta functions with: 
                l(1) =   0
                l(2) =   0
                l(3) =   1
                l(4) =   1

     PseudoPot. # 2 for O  read from file:
     /home/ciga/builds/pseudo_potentials/O.upf
     MD5 check sum: e357869f07dbe8d608261c380baea405
     Pseudo is Norm-conserving + core correction, Zval =  6.0
     Generated using ONCVPSP code by D. R. Hamann
     Using radial grid of  936 points,  5 beta functions with: 
                l(1) =   0
                l(2) =   0
                l(3) =   1
                l(4) =   1
                l(5) =   2

     PseudoPot. # 3 for H  read from file:
     /home/ciga/builds/pseudo_potentials/H.upf
     MD5 check sum: 418cee52d0c413ae40802e6cc37ab9e3
     Pseudo is Norm-conserving, Zval =  1.0
     Generated using ONCVPSP code by D. R. Hamann
     Using radial grid of 1166 points,  3 beta functions with: 
                l(1) =   0
                l(2) =   0
                l(3) =   1

     atomic species   valence    mass     pseudopotential
        C              4.00    12.01070     C ( 1.00)
        O              6.00    15.99940     O ( 1.00)
        H              1.00     1.00794     H ( 1.00)

     No symmetry found



   Cartesian axes

     site n.     atom                  positions (alat units)
         1           C   tau(   1) = (   0.0000000   0.0000000   0.0000000  )
         2           C   tau(   2) = (   0.0000000   0.0000000   0.1431468  )
         3           O   tau(   3) = (   0.0946708   0.0000000   0.2072437  )
         4           H   tau(   4) = (  -0.0963576   0.0000000   0.1886948  )
         5           H   tau(   5) = (  -0.0855762  -0.0494069  -0.0342985  )
         6           H   tau(   6) = (   0.0000000   0.0988138  -0.0342985  )
         7           H   tau(   7) = (   0.0855762  -0.0494069  -0.0342985  )

     number of k points=     1
                       cart. coord. in units 2pi/alat
        k(    1) = (   0.0000000   0.0000000   0.0000000), wk =   2.0000000

     Dense  grid:   136713 G-vectors     FFT dimensions: (  81,  81,  81)

     Estimated max dynamical RAM per process >      34.07 MB

     Estimated total dynamical RAM >     136.27 MB

     Check: negative core charge=   -0.000041

     Initial potential from superposition of free atoms

     starting charge   17.99987, renormalised to   18.00000

     negative rho (up, down):  1.281E-02 0.000E+00
     Starting wfcs are   16 randomized atomic wfcs

     total cpu time spent up to now is        0.6 secs

     Self-consistent Calculation

     iteration #  1     ecut=    40.00 Ry     beta= 0.50
     Davidson diagonalization with overlap
     ethr =  1.00E-02,  avg # of iterations =  2.0

     negative rho (up, down):  6.159E-03 0.000E+00

     total cpu time spent up to now is        1.1 secs

     total energy              =     -61.46012292 Ry
     estimated scf accuracy    <       0.67774112 Ry

     iteration #  2     ecut=    40.00 Ry     beta= 0.50
     Davidson diagonalization with overlap
     ethr =  3.77E-03,  avg # of iterations =  2.0

     negative rho (up, down):  2.844E-03 0.000E+00

     total cpu time spent up to now is        1.5 secs

     total energy              =     -61.57046722 Ry
     estimated scf accuracy    <       0.06445685 Ry

     iteration #  3     ecut=    40.00 Ry     beta= 0.50
     Davidson diagonalization with overlap
     ethr =  3.58E-04,  avg # of iterations =  1.0

     negative rho (up, down):  3.696E-04 0.000E+00

     total cpu time spent up to now is        1.9 secs

     total energy              =     -61.56921215 Ry
     estimated scf accuracy    <       0.01282557 Ry

     iteration #  4     ecut=    40.00 Ry     beta= 0.50
     Davidson diagonalization with overlap
     ethr =  7.13E-05,  avg # of iterations =  4.0

     negative rho (up, down):  1.422E-04 0.000E+00

     total cpu time spent up to now is        2.4 secs

     total energy              =     -61.56965062 Ry
     estimated scf accuracy    <       0.00326951 Ry

     iteration #  5     ecut=    40.00 Ry     beta= 0.50
     Davidson diagonalization with overlap
     ethr =  1.82E-05,  avg # of iterations =  5.0

     negative rho (up, down):  4.168E-05 0.000E+00

     total cpu time spent up to now is        2.9 secs

     total energy              =     -61.57035932 Ry
     estimated scf accuracy    <       0.00637958 Ry

     iteration #  6     ecut=    40.00 Ry     beta= 0.50
     Davidson diagonalization with overlap
     ethr =  1.82E-05,  avg # of iterations =  3.0

     negative rho (up, down):  2.879E-06 0.000E+00

     total cpu time spent up to now is        3.3 secs

     total energy              =     -61.57109012 Ry
     estimated scf accuracy    <       0.00029081 Ry

     iteration #  7     ecut=    40.00 Ry     beta= 0.50
     Davidson diagonalization with overlap
     ethr =  1.62E-06,  avg # of iterations =  5.0

     negative rho (up, down):  6.186E-08 0.000E+00

     total cpu time spent up to now is        3.8 secs

     total energy              =     -61.57125351 Ry
     estimated scf accuracy    <       0.00013885 Ry

     iteration #  8     ecut=    40.00 Ry     beta= 0.50
     Davidson diagonalization with overlap
     ethr =  7.71E-07,  avg # of iterations =  2.0

     total cpu time spent up to now is        4.2 secs

     total energy              =     -61.57124566 Ry
     estimated scf accuracy    <       0.00004321 Ry

     iteration #  9     ecut=    40.00 Ry     beta= 0.50
     Davidson diagonalization with overlap
     ethr =  2.40E-07,  avg # of iterations =  5.0

     total cpu time spent up to now is        4.6 secs

     total energy              =     -61.57125913 Ry
     estimated scf accuracy    <       0.00000240 Ry

     iteration # 10     ecut=    40.00 Ry     beta= 0.50
     Davidson diagonalization with overlap
     ethr =  1.33E-08,  avg # of iterations =  2.0

     total cpu time spent up to now is        5.0 secs

     total energy              =     -61.57125889 Ry
     estimated scf accuracy    <       0.00000100 Ry

     iteration # 11     ecut=    40.00 Ry     beta= 0.50
     Davidson diagonalization with overlap
     ethr =  5.56E-09,  avg # of iterations =  5.0

     total cpu time spent up to now is        5.5 secs

     total energy              =     -61.57125917 Ry
     estimated scf accuracy    <       0.00000003 Ry

     iteration # 12     ecut=    40.00 Ry     beta= 0.50
     Davidson diagonalization with overlap
     ethr =  1.64E-10,  avg # of iterations =  4.0

     total cpu time spent up to now is        6.0 secs

     total energy              =     -61.57125917 Ry
     estimated scf accuracy    <          5.9E-10 Ry

     iteration # 13     ecut=    40.00 Ry     beta= 0.50
     Davidson diagonalization with overlap
     ethr =  3.29E-12,  avg # of iterations =  3.0

     total cpu time spent up to now is        6.4 secs

     total energy              =     -61.57125917 Ry
     estimated scf accuracy    <          3.6E-10 Ry

     iteration # 14     ecut=    40.00 Ry     beta= 0.50
     Davidson diagonalization with overlap
     ethr =  2.00E-12,  avg # of iterations =  5.0

     total cpu time spent up to now is        6.9 secs

     total energy              =     -61.57125917 Ry
     estimated scf accuracy    <          1.9E-10 Ry

     iteration # 15     ecut=    40.00 Ry     beta= 0.50
     Davidson diagonalization with overlap
     ethr =  1.04E-12,  avg # of iterations =  2.0

     total cpu time spent up to now is        7.3 secs

     total energy              =     -61.57125917 Ry
     estimated scf accuracy    <          4.2E-11 Ry

     iteration # 16     ecut=    40.00 Ry     beta= 0.50
     Davidson diagonalization with overlap
     ethr =  2.33E-13,  avg # of iterations =  4.0

     total cpu time spent up to now is        7.8 secs

     total energy              =     -61.57125917 Ry
     estimated scf accuracy    <          7.4E-12 Ry

     iteration # 17     ecut=    40.00 Ry     beta= 0.50
     Davidson diagonalization with overlap
     ethr =  1.00E-13,  avg # of iterations =  2.0

     total cpu time spent up to now is        8.2 secs

     End of self-consistent calculation

          k = 0.0000 0.0000 0.0000 ( 17133 PWs)   bands (ev):

   -26.5311 -18.4776 -14.0816 -11.4502 -10.8197 -10.4316  -9.3611  -8.8542
    -5.6872

     highest occupied level (ev):    -5.6872

!    total energy              =     -61.57125917 Ry
     estimated scf accuracy    <          1.3E-13 Ry

     The total energy is the sum of the following terms:
     one-electron contribution =    -155.85753402 Ry
     hartree contribution      =      80.43759956 Ry
     xc contribution           =     -19.49502189 Ry
     ewald contribution        =      33.34369717 Ry

     convergence has been achieved in  17 iterations

     Forces acting on atoms (cartesian axes, Ry/au):

     atom    1 type  1   force =     0.00079546   -0.01643105   -0.01166652
     atom    2 type  1   force =     0.00061182    0.00214157    0.01333242
     atom    3 type  2   force =    -0.00567647   -0.00077532   -0.00029608
     atom    4 type  3   force =     0.00587417    0.00208117   -0.00166241
     atom    5 type  3   force =     0.00918196    0.01116778   -0.00168817
     atom    6 type  3   force =    -0.00192590   -0.01014954    0.00071820
     atom    7 type  3   force =    -0.00886105    0.01196539    0.00126256

     Total force =     0.034732     Total SCF correction =     0.000000

     Writing output data file ./Acetaldehyde.save/

     init_run     :      0.51s CPU      0.55s WALL (       1 calls)
     electrons    :      7.28s CPU      7.55s WALL (       1 calls)
     forces       :      0.34s CPU      0.36s WALL (       1 calls)

     Called by init_run:
     wfcinit      :      0.12s CPU      0.12s WALL (       1 calls)
     potinit      :      0.24s CPU      0.27s WALL (       1 calls)
     hinit0       :      0.12s CPU      0.13s WALL (       1 calls)

     Called by electrons:
     c_bands      :      3.48s CPU      3.51s WALL (      17 calls)
     sum_band     :      0.97s CPU      0.99s WALL (      17 calls)
     v_of_rho     :      2.36s CPU      2.60s WALL (      18 calls)
     mix_rho      :      0.52s CPU      0.52s WALL (      17 calls)

     Called by c_bands:
     init_us_2    :      0.08s CPU      0.09s WALL (      35 calls)
     regterg      :      3.38s CPU      3.40s WALL (      17 calls)

     Called by *egterg:
     rdiaghg      :      0.04s CPU      0.04s WALL (      73 calls)
     h_psi        :      3.11s CPU      3.14s WALL (      74 calls)
     g_psi        :      0.01s CPU      0.01s WALL (      56 calls)

     Called by h_psi:
     h_psi:calbec :      0.29s CPU      0.29s WALL (      74 calls)
     vloc_psi     :      2.59s CPU      2.61s WALL (      74 calls)
     add_vuspsi   :      0.22s CPU      0.22s WALL (      74 calls)

     General routines
     calbec       :      0.31s CPU      0.31s WALL (      78 calls)
     fft          :      1.44s CPU      1.49s WALL (     152 calls)
     ffts         :      0.16s CPU      0.16s WALL (      17 calls)
     fftw         :      2.43s CPU      2.45s WALL (     589 calls)

     Parallel routines

     PWSCF        :      8.23s CPU      8.57s WALL


   This run was terminated on:   7:11:27  24May2021            

=------------------------------------------------------------------------------=
   JOB DONE.
=------------------------------------------------------------------------------=
