
     Program PWSCF v.6.7GPU starts on 24May2021 at  7:12:25 

     This program is part of the open-source Quantum ESPRESSO suite
     for quantum simulation of materials; please cite
         "P. Giannozzi et al., J. Phys.:Condens. Matter 21 395502 (2009);
         "P. Giannozzi et al., J. Phys.:Condens. Matter 29 465901 (2017);
         "P. Giannozzi et al., J. Chem. Phys. 152 154105 (2020);
          URL http://www.quantum-espresso.org", 
     in publications or presentations arising from this work. More details at
     http://www.quantum-espresso.org/quote

     Parallel version (MPI), running on     4 processors

     MPI processes distributed on     1 nodes
     R & G space division:  proc/nbgrp/npool/nimage =       4
     Waiting for input...
     Reading input from standard input
     Message from routine read_cards :
     DEPRECATED: no units specified in CELL_PARAMETERS card

     Current dimensions of program PWSCF are:
     Max number of different atomic species (ntypx) = 10
     Max number of k-points (npk) =  40000
     Max angular momentum in pseudopotentials (lmaxx) =  3

     gamma-point specific algorithms are used

     Subspace diagonalization in iterative solution of the eigenvalue problem:
     one sub-group per band group will be used
     scalapack distributed-memory algorithm (size of sub-group:  2*  2 procs)


     Parallelization info
     --------------------
     sticks:   dense  smooth     PW     G-vecs:    dense   smooth      PW
     Min        2069    2069    518               141623   141623   17686
     Max        2072    2072    520               141628   141628   17689
     Sum        8285    8285   2077               566507   566507   70751

     Using Slab Decomposition



     bravais-lattice index     =            0
     lattice parameter (alat)  =      20.0000  a.u.
     unit-cell volume          =    8000.0000 (a.u.)^3
     number of atoms/cell      =            7
     number of atomic types    =            3
     number of electrons       =        18.00
     number of Kohn-Sham states=            9
     kinetic-energy cutoff     =      65.0000  Ry
     charge density cutoff     =     260.0000  Ry
     scf convergence threshold =      1.0E-12
     mixing beta               =       0.5000
     number of iterations used =            8  plain     mixing
     Exchange-correlation= PBE
                           (   1   4   3   4   0   0   0)

     celldm(1)=  20.000000  celldm(2)=   0.000000  celldm(3)=   0.000000
     celldm(4)=   0.000000  celldm(5)=   0.000000  celldm(6)=   0.000000

     crystal axes: (cart. coord. in units of alat)
               a(1) = (   1.000000   0.000000   0.000000 )  
               a(2) = (   0.000000   1.000000   0.000000 )  
               a(3) = (   0.000000   0.000000   1.000000 )  

     reciprocal axes: (cart. coord. in units 2 pi/alat)
               b(1) = (  1.000000  0.000000  0.000000 )  
               b(2) = (  0.000000  1.000000  0.000000 )  
               b(3) = (  0.000000  0.000000  1.000000 )  


     PseudoPot. # 1 for C  read from file:
     /home/ciga/builds/pseudo_potentials/C.upf
     MD5 check sum: d80ec9912146af6c4c1760317d1f95e9
     Pseudo is Norm-conserving + core correction, Zval =  4.0
     Generated using ONCVPSP code by D. R. Hamann
     Using radial grid of 1248 points,  4 beta functions with: 
                l(1) =   0
                l(2) =   0
                l(3) =   1
                l(4) =   1

     PseudoPot. # 2 for O  read from file:
     /home/ciga/builds/pseudo_potentials/O.upf
     MD5 check sum: e357869f07dbe8d608261c380baea405
     Pseudo is Norm-conserving + core correction, Zval =  6.0
     Generated using ONCVPSP code by D. R. Hamann
     Using radial grid of  936 points,  5 beta functions with: 
                l(1) =   0
                l(2) =   0
                l(3) =   1
                l(4) =   1
                l(5) =   2

     PseudoPot. # 3 for H  read from file:
     /home/ciga/builds/pseudo_potentials/H.upf
     MD5 check sum: 418cee52d0c413ae40802e6cc37ab9e3
     Pseudo is Norm-conserving, Zval =  1.0
     Generated using ONCVPSP code by D. R. Hamann
     Using radial grid of 1166 points,  3 beta functions with: 
                l(1) =   0
                l(2) =   0
                l(3) =   1

     atomic species   valence    mass     pseudopotential
        C              4.00    12.01070     C ( 1.00)
        O              6.00    15.99940     O ( 1.00)
        H              1.00     1.00794     H ( 1.00)

     No symmetry found



   Cartesian axes

     site n.     atom                  positions (alat units)
         1           C   tau(   1) = (   0.0000000   0.0000000   0.0000000  )
         2           C   tau(   2) = (   0.0000000   0.0000000   0.1431468  )
         3           O   tau(   3) = (   0.0946708   0.0000000   0.2072437  )
         4           H   tau(   4) = (  -0.0963576   0.0000000   0.1886948  )
         5           H   tau(   5) = (  -0.0855762  -0.0494069  -0.0342985  )
         6           H   tau(   6) = (   0.0000000   0.0988138  -0.0342985  )
         7           H   tau(   7) = (   0.0855762  -0.0494069  -0.0342985  )

     number of k points=     1
                       cart. coord. in units 2pi/alat
        k(    1) = (   0.0000000   0.0000000   0.0000000), wk =   2.0000000

     Dense  grid:   283254 G-vectors     FFT dimensions: ( 108, 108, 108)

     Estimated max dynamical RAM per process >      70.86 MB

     Estimated total dynamical RAM >     283.45 MB

     Check: negative core charge=   -0.000002

     Initial potential from superposition of free atoms

     starting charge   17.99987, renormalised to   18.00000

     negative rho (up, down):  1.938E-04 0.000E+00
     Starting wfcs are   16 randomized atomic wfcs

     total cpu time spent up to now is        1.3 secs

     Self-consistent Calculation

     iteration #  1     ecut=    65.00 Ry     beta= 0.50
     Davidson diagonalization with overlap
     ethr =  1.00E-02,  avg # of iterations =  2.0

     negative rho (up, down):  7.562E-05 0.000E+00

     total cpu time spent up to now is        2.4 secs

     total energy              =     -61.67397028 Ry
     estimated scf accuracy    <       0.79699749 Ry

     iteration #  2     ecut=    65.00 Ry     beta= 0.50
     Davidson diagonalization with overlap
     ethr =  4.43E-03,  avg # of iterations =  3.0

     negative rho (up, down):  3.165E-05 0.000E+00

     total cpu time spent up to now is        3.5 secs

     total energy              =     -61.80938414 Ry
     estimated scf accuracy    <       0.12695036 Ry

     iteration #  3     ecut=    65.00 Ry     beta= 0.50
     Davidson diagonalization with overlap
     ethr =  7.05E-04,  avg # of iterations =  4.0

     negative rho (up, down):  1.315E-05 0.000E+00

     total cpu time spent up to now is        4.7 secs

     total energy              =     -61.82642059 Ry
     estimated scf accuracy    <       0.02561711 Ry

     iteration #  4     ecut=    65.00 Ry     beta= 0.50
     Davidson diagonalization with overlap
     ethr =  1.42E-04,  avg # of iterations =  3.0

     negative rho (up, down):  4.882E-07 0.000E+00

     total cpu time spent up to now is        5.7 secs

     total energy              =     -61.82796837 Ry
     estimated scf accuracy    <       0.00354314 Ry

     iteration #  5     ecut=    65.00 Ry     beta= 0.50
     Davidson diagonalization with overlap
     ethr =  1.97E-05,  avg # of iterations =  2.0

     negative rho (up, down):  1.924E-07 0.000E+00

     total cpu time spent up to now is        6.8 secs

     total energy              =     -61.82831840 Ry
     estimated scf accuracy    <       0.00078021 Ry

     iteration #  6     ecut=    65.00 Ry     beta= 0.50
     Davidson diagonalization with overlap
     ethr =  4.33E-06,  avg # of iterations =  4.0

     negative rho (up, down):  3.571E-08 0.000E+00

     total cpu time spent up to now is        8.1 secs

     total energy              =     -61.82854208 Ry
     estimated scf accuracy    <       0.00015669 Ry

     iteration #  7     ecut=    65.00 Ry     beta= 0.50
     Davidson diagonalization with overlap
     ethr =  8.70E-07,  avg # of iterations =  2.0

     total cpu time spent up to now is        9.1 secs

     total energy              =     -61.82853582 Ry
     estimated scf accuracy    <       0.00002855 Ry

     iteration #  8     ecut=    65.00 Ry     beta= 0.50
     Davidson diagonalization with overlap
     ethr =  1.59E-07,  avg # of iterations =  5.0

     total cpu time spent up to now is       10.4 secs

     total energy              =     -61.82854953 Ry
     estimated scf accuracy    <       0.00003150 Ry

     iteration #  9     ecut=    65.00 Ry     beta= 0.50
     Davidson diagonalization with overlap
     ethr =  1.59E-07,  avg # of iterations =  3.0

     total cpu time spent up to now is       11.4 secs

     total energy              =     -61.82855181 Ry
     estimated scf accuracy    <       0.00000324 Ry

     iteration # 10     ecut=    65.00 Ry     beta= 0.50
     Davidson diagonalization with overlap
     ethr =  1.80E-08,  avg # of iterations =  4.0

     total cpu time spent up to now is       12.7 secs

     total energy              =     -61.82855278 Ry
     estimated scf accuracy    <       0.00000007 Ry

     iteration # 11     ecut=    65.00 Ry     beta= 0.50
     Davidson diagonalization with overlap
     ethr =  3.76E-10,  avg # of iterations =  5.0

     total cpu time spent up to now is       14.1 secs

     total energy              =     -61.82855283 Ry
     estimated scf accuracy    <       0.00000002 Ry

     iteration # 12     ecut=    65.00 Ry     beta= 0.50
     Davidson diagonalization with overlap
     ethr =  9.54E-11,  avg # of iterations =  4.0

     total cpu time spent up to now is       15.3 secs

     total energy              =     -61.82855283 Ry
     estimated scf accuracy    <          4.3E-09 Ry

     iteration # 13     ecut=    65.00 Ry     beta= 0.50
     Davidson diagonalization with overlap
     ethr =  2.39E-11,  avg # of iterations =  4.0

     total cpu time spent up to now is       16.4 secs

     total energy              =     -61.82855283 Ry
     estimated scf accuracy    <          1.4E-10 Ry

     iteration # 14     ecut=    65.00 Ry     beta= 0.50
     Davidson diagonalization with overlap
     ethr =  7.50E-13,  avg # of iterations =  7.0

     total cpu time spent up to now is       18.0 secs

     total energy              =     -61.82855283 Ry
     estimated scf accuracy    <          8.7E-10 Ry

     iteration # 15     ecut=    65.00 Ry     beta= 0.50
     Davidson diagonalization with overlap
     ethr =  7.50E-13,  avg # of iterations =  5.0

     total cpu time spent up to now is       19.3 secs

     total energy              =     -61.82855283 Ry
     estimated scf accuracy    <          6.9E-12 Ry

     iteration # 16     ecut=    65.00 Ry     beta= 0.50
     Davidson diagonalization with overlap
     ethr =  1.00E-13,  avg # of iterations =  2.0

     total cpu time spent up to now is       20.3 secs

     total energy              =     -61.82855283 Ry
     estimated scf accuracy    <          3.3E-12 Ry

     iteration # 17     ecut=    65.00 Ry     beta= 0.50
     Davidson diagonalization with overlap
     ethr =  1.00E-13,  avg # of iterations =  2.0

     total cpu time spent up to now is       21.3 secs

     End of self-consistent calculation

          k = 0.0000 0.0000 0.0000 ( 35376 PWs)   bands (ev):

   -26.0588 -18.3544 -13.9598 -11.3702 -10.7862 -10.3337  -9.3366  -8.8145
    -5.6626

     highest occupied level (ev):    -5.6626

!    total energy              =     -61.82855283 Ry
     estimated scf accuracy    <          1.2E-13 Ry

     The total energy is the sum of the following terms:
     one-electron contribution =    -156.44122864 Ry
     hartree contribution      =      80.85559341 Ry
     xc contribution           =     -19.58661479 Ry
     ewald contribution        =      33.34369718 Ry

     convergence has been achieved in  17 iterations

     Forces acting on atoms (cartesian axes, Ry/au):

     atom    1 type  1   force =     0.00096128   -0.01635995    0.00439934
     atom    2 type  1   force =    -0.00570300    0.00206632   -0.00558920
     atom    3 type  2   force =     0.00021736   -0.00078949    0.00277656
     atom    4 type  3   force =     0.00725704    0.00205811   -0.00186265
     atom    5 type  3   force =     0.00884014    0.01120340   -0.00167252
     atom    6 type  3   force =    -0.00219538   -0.01031040    0.00060182
     atom    7 type  3   force =    -0.00937744    0.01213202    0.00134665

     Total force =     0.031298     Total SCF correction =     0.000001

     Writing output data file ./Acetaldehyde.save/

     init_run     :      1.11s CPU      1.18s WALL (       1 calls)
     electrons    :     19.59s CPU     20.02s WALL (       1 calls)
     forces       :      0.71s CPU      0.73s WALL (       1 calls)

     Called by init_run:
     wfcinit      :      0.30s CPU      0.32s WALL (       1 calls)
     potinit      :      0.48s CPU      0.52s WALL (       1 calls)
     hinit0       :      0.21s CPU      0.23s WALL (       1 calls)

     Called by electrons:
     c_bands      :     10.20s CPU     10.28s WALL (      17 calls)
     sum_band     :      2.59s CPU      2.61s WALL (      17 calls)
     v_of_rho     :      5.52s CPU      5.83s WALL (      18 calls)
     mix_rho      :      1.40s CPU      1.44s WALL (      17 calls)

     Called by c_bands:
     init_us_2    :      0.17s CPU      0.18s WALL (      35 calls)
     regterg      :     10.00s CPU     10.07s WALL (      17 calls)

     Called by *egterg:
     rdiaghg      :      0.04s CPU      0.04s WALL (      78 calls)
     h_psi        :      9.37s CPU      9.45s WALL (      79 calls)
     g_psi        :      0.02s CPU      0.02s WALL (      61 calls)

     Called by h_psi:
     h_psi:calbec :      0.63s CPU      0.63s WALL (      79 calls)
     vloc_psi     :      8.22s CPU      8.28s WALL (      79 calls)
     add_vuspsi   :      0.49s CPU      0.49s WALL (      79 calls)

     General routines
     calbec       :      0.67s CPU      0.68s WALL (      83 calls)
     fft          :      3.63s CPU      3.72s WALL (     152 calls)
     ffts         :      0.42s CPU      0.43s WALL (      17 calls)
     fftw         :      7.91s CPU      7.97s WALL (     627 calls)

     Parallel routines

     PWSCF        :     21.52s CPU     22.06s WALL


   This run was terminated on:   7:12:47  24May2021            

=------------------------------------------------------------------------------=
   JOB DONE.
=------------------------------------------------------------------------------=
