
     Program PWSCF v.6.7GPU starts on 24May2021 at  7:12:47 

     This program is part of the open-source Quantum ESPRESSO suite
     for quantum simulation of materials; please cite
         "P. Giannozzi et al., J. Phys.:Condens. Matter 21 395502 (2009);
         "P. Giannozzi et al., J. Phys.:Condens. Matter 29 465901 (2017);
         "P. Giannozzi et al., J. Chem. Phys. 152 154105 (2020);
          URL http://www.quantum-espresso.org", 
     in publications or presentations arising from this work. More details at
     http://www.quantum-espresso.org/quote

     Parallel version (MPI), running on     4 processors

     MPI processes distributed on     1 nodes
     R & G space division:  proc/nbgrp/npool/nimage =       4
     Waiting for input...
     Reading input from standard input
     Message from routine read_cards :
     DEPRECATED: no units specified in CELL_PARAMETERS card

     Current dimensions of program PWSCF are:
     Max number of different atomic species (ntypx) = 10
     Max number of k-points (npk) =  40000
     Max angular momentum in pseudopotentials (lmaxx) =  3

     gamma-point specific algorithms are used

     Subspace diagonalization in iterative solution of the eigenvalue problem:
     one sub-group per band group will be used
     scalapack distributed-memory algorithm (size of sub-group:  2*  2 procs)


     Parallelization info
     --------------------
     sticks:   dense  smooth     PW     G-vecs:    dense   smooth      PW
     Min        2230    2230    557               158211   158211   19778
     Max        2234    2234    560               158214   158214   19781
     Sum        8929    8929   2233               632851   632851   79117

     Using Slab Decomposition



     bravais-lattice index     =            0
     lattice parameter (alat)  =      20.0000  a.u.
     unit-cell volume          =    8000.0000 (a.u.)^3
     number of atoms/cell      =            7
     number of atomic types    =            3
     number of electrons       =        18.00
     number of Kohn-Sham states=            9
     kinetic-energy cutoff     =      70.0000  Ry
     charge density cutoff     =     280.0000  Ry
     scf convergence threshold =      1.0E-12
     mixing beta               =       0.5000
     number of iterations used =            8  plain     mixing
     Exchange-correlation= PBE
                           (   1   4   3   4   0   0   0)

     celldm(1)=  20.000000  celldm(2)=   0.000000  celldm(3)=   0.000000
     celldm(4)=   0.000000  celldm(5)=   0.000000  celldm(6)=   0.000000

     crystal axes: (cart. coord. in units of alat)
               a(1) = (   1.000000   0.000000   0.000000 )  
               a(2) = (   0.000000   1.000000   0.000000 )  
               a(3) = (   0.000000   0.000000   1.000000 )  

     reciprocal axes: (cart. coord. in units 2 pi/alat)
               b(1) = (  1.000000  0.000000  0.000000 )  
               b(2) = (  0.000000  1.000000  0.000000 )  
               b(3) = (  0.000000  0.000000  1.000000 )  


     PseudoPot. # 1 for C  read from file:
     /home/ciga/builds/pseudo_potentials/C.upf
     MD5 check sum: d80ec9912146af6c4c1760317d1f95e9
     Pseudo is Norm-conserving + core correction, Zval =  4.0
     Generated using ONCVPSP code by D. R. Hamann
     Using radial grid of 1248 points,  4 beta functions with: 
                l(1) =   0
                l(2) =   0
                l(3) =   1
                l(4) =   1

     PseudoPot. # 2 for O  read from file:
     /home/ciga/builds/pseudo_potentials/O.upf
     MD5 check sum: e357869f07dbe8d608261c380baea405
     Pseudo is Norm-conserving + core correction, Zval =  6.0
     Generated using ONCVPSP code by D. R. Hamann
     Using radial grid of  936 points,  5 beta functions with: 
                l(1) =   0
                l(2) =   0
                l(3) =   1
                l(4) =   1
                l(5) =   2

     PseudoPot. # 3 for H  read from file:
     /home/ciga/builds/pseudo_potentials/H.upf
     MD5 check sum: 418cee52d0c413ae40802e6cc37ab9e3
     Pseudo is Norm-conserving, Zval =  1.0
     Generated using ONCVPSP code by D. R. Hamann
     Using radial grid of 1166 points,  3 beta functions with: 
                l(1) =   0
                l(2) =   0
                l(3) =   1

     atomic species   valence    mass     pseudopotential
        C              4.00    12.01070     C ( 1.00)
        O              6.00    15.99940     O ( 1.00)
        H              1.00     1.00794     H ( 1.00)

     No symmetry found



   Cartesian axes

     site n.     atom                  positions (alat units)
         1           C   tau(   1) = (   0.0000000   0.0000000   0.0000000  )
         2           C   tau(   2) = (   0.0000000   0.0000000   0.1431468  )
         3           O   tau(   3) = (   0.0946708   0.0000000   0.2072437  )
         4           H   tau(   4) = (  -0.0963576   0.0000000   0.1886948  )
         5           H   tau(   5) = (  -0.0855762  -0.0494069  -0.0342985  )
         6           H   tau(   6) = (   0.0000000   0.0988138  -0.0342985  )
         7           H   tau(   7) = (   0.0855762  -0.0494069  -0.0342985  )

     number of k points=     1
                       cart. coord. in units 2pi/alat
        k(    1) = (   0.0000000   0.0000000   0.0000000), wk =   2.0000000

     Dense  grid:   316426 G-vectors     FFT dimensions: ( 108, 108, 108)

     Estimated max dynamical RAM per process >      76.41 MB

     Estimated total dynamical RAM >     305.66 MB

     Initial potential from superposition of free atoms

     starting charge   17.99987, renormalised to   18.00000

     negative rho (up, down):  1.383E-04 0.000E+00
     Starting wfcs are   16 randomized atomic wfcs

     total cpu time spent up to now is        1.3 secs

     Self-consistent Calculation

     iteration #  1     ecut=    70.00 Ry     beta= 0.50
     Davidson diagonalization with overlap
     ethr =  1.00E-02,  avg # of iterations =  2.0

     negative rho (up, down):  4.994E-05 0.000E+00

     total cpu time spent up to now is        2.5 secs

     total energy              =     -61.67556324 Ry
     estimated scf accuracy    <       0.80218362 Ry

     iteration #  2     ecut=    70.00 Ry     beta= 0.50
     Davidson diagonalization with overlap
     ethr =  4.46E-03,  avg # of iterations =  3.0

     negative rho (up, down):  1.938E-05 0.000E+00

     total cpu time spent up to now is        3.7 secs

     total energy              =     -61.81348334 Ry
     estimated scf accuracy    <       0.12871845 Ry

     iteration #  3     ecut=    70.00 Ry     beta= 0.50
     Davidson diagonalization with overlap
     ethr =  7.15E-04,  avg # of iterations =  4.0

     negative rho (up, down):  8.026E-06 0.000E+00

     total cpu time spent up to now is        4.8 secs

     total energy              =     -61.83071014 Ry
     estimated scf accuracy    <       0.02573046 Ry

     iteration #  4     ecut=    70.00 Ry     beta= 0.50
     Davidson diagonalization with overlap
     ethr =  1.43E-04,  avg # of iterations =  3.0

     negative rho (up, down):  3.449E-07 0.000E+00

     total cpu time spent up to now is        5.9 secs

     total energy              =     -61.83224661 Ry
     estimated scf accuracy    <       0.00358365 Ry

     iteration #  5     ecut=    70.00 Ry     beta= 0.50
     Davidson diagonalization with overlap
     ethr =  1.99E-05,  avg # of iterations =  2.0

     negative rho (up, down):  1.401E-07 0.000E+00

     total cpu time spent up to now is        7.1 secs

     total energy              =     -61.83260525 Ry
     estimated scf accuracy    <       0.00077931 Ry

     iteration #  6     ecut=    70.00 Ry     beta= 0.50
     Davidson diagonalization with overlap
     ethr =  4.33E-06,  avg # of iterations =  4.0

     negative rho (up, down):  3.098E-08 0.000E+00

     total cpu time spent up to now is        8.3 secs

     total energy              =     -61.83282814 Ry
     estimated scf accuracy    <       0.00015261 Ry

     iteration #  7     ecut=    70.00 Ry     beta= 0.50
     Davidson diagonalization with overlap
     ethr =  8.48E-07,  avg # of iterations =  2.0

     total cpu time spent up to now is        9.3 secs

     total energy              =     -61.83282055 Ry
     estimated scf accuracy    <       0.00002961 Ry

     iteration #  8     ecut=    70.00 Ry     beta= 0.50
     Davidson diagonalization with overlap
     ethr =  1.64E-07,  avg # of iterations =  5.0

     total cpu time spent up to now is       10.7 secs

     total energy              =     -61.83283414 Ry
     estimated scf accuracy    <       0.00003206 Ry

     iteration #  9     ecut=    70.00 Ry     beta= 0.50
     Davidson diagonalization with overlap
     ethr =  1.64E-07,  avg # of iterations =  3.0

     total cpu time spent up to now is       11.8 secs

     total energy              =     -61.83283689 Ry
     estimated scf accuracy    <       0.00000279 Ry

     iteration # 10     ecut=    70.00 Ry     beta= 0.50
     Davidson diagonalization with overlap
     ethr =  1.55E-08,  avg # of iterations =  4.0

     total cpu time spent up to now is       13.0 secs

     total energy              =     -61.83283777 Ry
     estimated scf accuracy    <       0.00000006 Ry

     iteration # 11     ecut=    70.00 Ry     beta= 0.50
     Davidson diagonalization with overlap
     ethr =  3.61E-10,  avg # of iterations =  5.0

     total cpu time spent up to now is       14.5 secs

     total energy              =     -61.83283782 Ry
     estimated scf accuracy    <       0.00000001 Ry

     iteration # 12     ecut=    70.00 Ry     beta= 0.50
     Davidson diagonalization with overlap
     ethr =  7.33E-11,  avg # of iterations =  5.0

     total cpu time spent up to now is       15.8 secs

     total energy              =     -61.83283783 Ry
     estimated scf accuracy    <       0.00000001 Ry

     iteration # 13     ecut=    70.00 Ry     beta= 0.50
     Davidson diagonalization with overlap
     ethr =  5.78E-11,  avg # of iterations =  2.0

     total cpu time spent up to now is       16.8 secs

     total energy              =     -61.83283783 Ry
     estimated scf accuracy    <          2.4E-09 Ry

     iteration # 14     ecut=    70.00 Ry     beta= 0.50
     Davidson diagonalization with overlap
     ethr =  1.32E-11,  avg # of iterations =  5.0

     total cpu time spent up to now is       18.2 secs

     total energy              =     -61.83283783 Ry
     estimated scf accuracy    <          2.5E-09 Ry

     iteration # 15     ecut=    70.00 Ry     beta= 0.50
     Davidson diagonalization with overlap
     ethr =  1.32E-11,  avg # of iterations =  2.0

     total cpu time spent up to now is       19.2 secs

     total energy              =     -61.83283783 Ry
     estimated scf accuracy    <          6.7E-10 Ry

     iteration # 16     ecut=    70.00 Ry     beta= 0.50
     Davidson diagonalization with overlap
     ethr =  3.71E-12,  avg # of iterations =  5.0

     total cpu time spent up to now is       20.5 secs

     total energy              =     -61.83283783 Ry
     estimated scf accuracy    <          5.0E-11 Ry

     iteration # 17     ecut=    70.00 Ry     beta= 0.50
     Davidson diagonalization with overlap
     ethr =  2.80E-13,  avg # of iterations =  2.0

     total cpu time spent up to now is       21.5 secs

     total energy              =     -61.83283783 Ry
     estimated scf accuracy    <          3.3E-11 Ry

     iteration # 18     ecut=    70.00 Ry     beta= 0.50
     Davidson diagonalization with overlap
     ethr =  1.84E-13,  avg # of iterations =  4.0

     total cpu time spent up to now is       22.5 secs

     End of self-consistent calculation

          k = 0.0000 0.0000 0.0000 ( 39559 PWs)   bands (ev):

   -26.0524 -18.3518 -13.9579 -11.3694 -10.7858 -10.3326  -9.3365  -8.8140
    -5.6626

     highest occupied level (ev):    -5.6626

!    total energy              =     -61.83283783 Ry
     estimated scf accuracy    <          7.3E-14 Ry

     The total energy is the sum of the following terms:
     one-electron contribution =    -156.44902147 Ry
     hartree contribution      =      80.86111230 Ry
     xc contribution           =     -19.58862584 Ry
     ewald contribution        =      33.34369718 Ry

     convergence has been achieved in  18 iterations

     Forces acting on atoms (cartesian axes, Ry/au):

     atom    1 type  1   force =     0.00091593   -0.01633372    0.00406415
     atom    2 type  1   force =    -0.00518202    0.00206389   -0.00498455
     atom    3 type  2   force =    -0.00052067   -0.00078469    0.00233845
     atom    4 type  3   force =     0.00752780    0.00205723   -0.00199259
     atom    5 type  3   force =     0.00905024    0.01131327   -0.00157485
     atom    6 type  3   force =    -0.00219591   -0.01056337    0.00070042
     atom    7 type  3   force =    -0.00959537    0.01224738    0.00144896

     Total force =     0.031381     Total SCF correction =     0.000000

     Writing output data file ./Acetaldehyde.save/

     init_run     :      1.19s CPU      1.25s WALL (       1 calls)
     electrons    :     20.77s CPU     21.22s WALL (       1 calls)
     forces       :      0.72s CPU      0.75s WALL (       1 calls)

     Called by init_run:
     wfcinit      :      0.32s CPU      0.33s WALL (       1 calls)
     potinit      :      0.52s CPU      0.55s WALL (       1 calls)
     hinit0       :      0.23s CPU      0.25s WALL (       1 calls)

     Called by electrons:
     c_bands      :     10.75s CPU     10.81s WALL (      18 calls)
     sum_band     :      2.81s CPU      2.83s WALL (      18 calls)
     v_of_rho     :      5.64s CPU      6.01s WALL (      19 calls)
     mix_rho      :      1.68s CPU      1.69s WALL (      18 calls)

     Called by c_bands:
     init_us_2    :      0.20s CPU      0.21s WALL (      37 calls)
     regterg      :     10.51s CPU     10.56s WALL (      18 calls)

     Called by *egterg:
     rdiaghg      :      0.04s CPU      0.04s WALL (      80 calls)
     h_psi        :      9.76s CPU      9.82s WALL (      81 calls)
     g_psi        :      0.02s CPU      0.02s WALL (      62 calls)

     Called by h_psi:
     h_psi:calbec :      0.70s CPU      0.70s WALL (      81 calls)
     vloc_psi     :      8.45s CPU      8.51s WALL (      81 calls)
     add_vuspsi   :      0.55s CPU      0.55s WALL (      81 calls)

     General routines
     calbec       :      0.75s CPU      0.75s WALL (      85 calls)
     fft          :      3.97s CPU      4.07s WALL (     160 calls)
     ffts         :      0.47s CPU      0.47s WALL (      18 calls)
     fftw         :      8.19s CPU      8.24s WALL (     638 calls)

     Parallel routines

     PWSCF        :     22.79s CPU     23.36s WALL


   This run was terminated on:   7:13:10  24May2021            

=------------------------------------------------------------------------------=
   JOB DONE.
=------------------------------------------------------------------------------=
