
     Program PWSCF v.6.7GPU starts on 24May2021 at  7:11: 7 

     This program is part of the open-source Quantum ESPRESSO suite
     for quantum simulation of materials; please cite
         "P. Giannozzi et al., J. Phys.:Condens. Matter 21 395502 (2009);
         "P. Giannozzi et al., J. Phys.:Condens. Matter 29 465901 (2017);
         "P. Giannozzi et al., J. Chem. Phys. 152 154105 (2020);
          URL http://www.quantum-espresso.org", 
     in publications or presentations arising from this work. More details at
     http://www.quantum-espresso.org/quote

     Parallel version (MPI), running on     4 processors

     MPI processes distributed on     1 nodes
     R & G space division:  proc/nbgrp/npool/nimage =       4
     Waiting for input...
     Reading input from standard input
     Message from routine read_cards :
     DEPRECATED: no units specified in CELL_PARAMETERS card

     Current dimensions of program PWSCF are:
     Max number of different atomic species (ntypx) = 10
     Max number of k-points (npk) =  40000
     Max angular momentum in pseudopotentials (lmaxx) =  3

     gamma-point specific algorithms are used

     Subspace diagonalization in iterative solution of the eigenvalue problem:
     one sub-group per band group will be used
     scalapack distributed-memory algorithm (size of sub-group:  2*  2 procs)


     Parallelization info
     --------------------
     sticks:   dense  smooth     PW     G-vecs:    dense   smooth      PW
     Min         951     951    236                44375    44375    5524
     Max         954     954    238                44382    44382    5534
     Sum        3809    3809    949               177509   177509   22119

     Using Slab Decomposition



     bravais-lattice index     =            0
     lattice parameter (alat)  =      20.0000  a.u.
     unit-cell volume          =    8000.0000 (a.u.)^3
     number of atoms/cell      =            7
     number of atomic types    =            3
     number of electrons       =        18.00
     number of Kohn-Sham states=            9
     kinetic-energy cutoff     =      30.0000  Ry
     charge density cutoff     =     120.0000  Ry
     scf convergence threshold =      1.0E-12
     mixing beta               =       0.5000
     number of iterations used =            8  plain     mixing
     Exchange-correlation= PBE
                           (   1   4   3   4   0   0   0)

     celldm(1)=  20.000000  celldm(2)=   0.000000  celldm(3)=   0.000000
     celldm(4)=   0.000000  celldm(5)=   0.000000  celldm(6)=   0.000000

     crystal axes: (cart. coord. in units of alat)
               a(1) = (   1.000000   0.000000   0.000000 )  
               a(2) = (   0.000000   1.000000   0.000000 )  
               a(3) = (   0.000000   0.000000   1.000000 )  

     reciprocal axes: (cart. coord. in units 2 pi/alat)
               b(1) = (  1.000000  0.000000  0.000000 )  
               b(2) = (  0.000000  1.000000  0.000000 )  
               b(3) = (  0.000000  0.000000  1.000000 )  


     PseudoPot. # 1 for C  read from file:
     /home/ciga/builds/pseudo_potentials/C.upf
     MD5 check sum: d80ec9912146af6c4c1760317d1f95e9
     Pseudo is Norm-conserving + core correction, Zval =  4.0
     Generated using ONCVPSP code by D. R. Hamann
     Using radial grid of 1248 points,  4 beta functions with: 
                l(1) =   0
                l(2) =   0
                l(3) =   1
                l(4) =   1

     PseudoPot. # 2 for O  read from file:
     /home/ciga/builds/pseudo_potentials/O.upf
     MD5 check sum: e357869f07dbe8d608261c380baea405
     Pseudo is Norm-conserving + core correction, Zval =  6.0
     Generated using ONCVPSP code by D. R. Hamann
     Using radial grid of  936 points,  5 beta functions with: 
                l(1) =   0
                l(2) =   0
                l(3) =   1
                l(4) =   1
                l(5) =   2

     PseudoPot. # 3 for H  read from file:
     /home/ciga/builds/pseudo_potentials/H.upf
     MD5 check sum: 418cee52d0c413ae40802e6cc37ab9e3
     Pseudo is Norm-conserving, Zval =  1.0
     Generated using ONCVPSP code by D. R. Hamann
     Using radial grid of 1166 points,  3 beta functions with: 
                l(1) =   0
                l(2) =   0
                l(3) =   1

     atomic species   valence    mass     pseudopotential
        C              4.00    12.01070     C ( 1.00)
        O              6.00    15.99940     O ( 1.00)
        H              1.00     1.00794     H ( 1.00)

     No symmetry found



   Cartesian axes

     site n.     atom                  positions (alat units)
         1           C   tau(   1) = (   0.0000000   0.0000000   0.0000000  )
         2           C   tau(   2) = (   0.0000000   0.0000000   0.1431468  )
         3           O   tau(   3) = (   0.0946708   0.0000000   0.2072437  )
         4           H   tau(   4) = (  -0.0963576   0.0000000   0.1886948  )
         5           H   tau(   5) = (  -0.0855762  -0.0494069  -0.0342985  )
         6           H   tau(   6) = (   0.0000000   0.0988138  -0.0342985  )
         7           H   tau(   7) = (   0.0855762  -0.0494069  -0.0342985  )

     number of k points=     1
                       cart. coord. in units 2pi/alat
        k(    1) = (   0.0000000   0.0000000   0.0000000), wk =   2.0000000

     Dense  grid:    88755 G-vectors     FFT dimensions: (  72,  72,  72)

     Estimated max dynamical RAM per process >      22.86 MB

     Estimated total dynamical RAM >      91.44 MB

     Check: negative core charge=   -0.000114

     Initial potential from superposition of free atoms

     starting charge   17.99987, renormalised to   18.00000

     negative rho (up, down):  7.474E-02 0.000E+00
     Starting wfcs are   16 randomized atomic wfcs

     total cpu time spent up to now is        0.5 secs

     Self-consistent Calculation

     iteration #  1     ecut=    30.00 Ry     beta= 0.50
     Davidson diagonalization with overlap
     ethr =  1.00E-02,  avg # of iterations =  2.0

     negative rho (up, down):  3.598E-02 0.000E+00

     total cpu time spent up to now is        0.7 secs

     total energy              =     -60.97666021 Ry
     estimated scf accuracy    <       0.54470793 Ry

     iteration #  2     ecut=    30.00 Ry     beta= 0.50
     Davidson diagonalization with overlap
     ethr =  3.03E-03,  avg # of iterations =  2.0

     negative rho (up, down):  1.473E-02 0.000E+00

     total cpu time spent up to now is        1.0 secs

     total energy              =     -61.03817534 Ry
     estimated scf accuracy    <       0.05506584 Ry

     iteration #  3     ecut=    30.00 Ry     beta= 0.50
     Davidson diagonalization with overlap
     ethr =  3.06E-04,  avg # of iterations =  1.0

     negative rho (up, down):  8.429E-04 0.000E+00

     total cpu time spent up to now is        1.2 secs

     total energy              =     -61.03631589 Ry
     estimated scf accuracy    <       0.00951902 Ry

     iteration #  4     ecut=    30.00 Ry     beta= 0.50
     Davidson diagonalization with overlap
     ethr =  5.29E-05,  avg # of iterations =  2.0

     negative rho (up, down):  4.629E-04 0.000E+00

     total cpu time spent up to now is        1.4 secs

     total energy              =     -61.03763410 Ry
     estimated scf accuracy    <       0.00043514 Ry

     iteration #  5     ecut=    30.00 Ry     beta= 0.50
     Davidson diagonalization with overlap
     ethr =  2.42E-06,  avg # of iterations =  5.0

     negative rho (up, down):  4.610E-05 0.000E+00

     total cpu time spent up to now is        1.7 secs

     total energy              =     -61.03776722 Ry
     estimated scf accuracy    <       0.00006330 Ry

     iteration #  6     ecut=    30.00 Ry     beta= 0.50
     Davidson diagonalization with overlap
     ethr =  3.52E-07,  avg # of iterations =  5.0

     negative rho (up, down):  1.110E-05 0.000E+00

     total cpu time spent up to now is        2.0 secs

     total energy              =     -61.03777963 Ry
     estimated scf accuracy    <       0.00005696 Ry

     iteration #  7     ecut=    30.00 Ry     beta= 0.50
     Davidson diagonalization with overlap
     ethr =  3.16E-07,  avg # of iterations =  3.0

     negative rho (up, down):  1.129E-06 0.000E+00

     total cpu time spent up to now is        2.3 secs

     total energy              =     -61.03778174 Ry
     estimated scf accuracy    <       0.00000823 Ry

     iteration #  8     ecut=    30.00 Ry     beta= 0.50
     Davidson diagonalization with overlap
     ethr =  4.57E-08,  avg # of iterations =  5.0

     total cpu time spent up to now is        2.5 secs

     total energy              =     -61.03778282 Ry
     estimated scf accuracy    <       0.00000405 Ry

     iteration #  9     ecut=    30.00 Ry     beta= 0.50
     Davidson diagonalization with overlap
     ethr =  2.25E-08,  avg # of iterations =  3.0

     total cpu time spent up to now is        2.8 secs

     total energy              =     -61.03778369 Ry
     estimated scf accuracy    <       0.00000006 Ry

     iteration # 10     ecut=    30.00 Ry     beta= 0.50
     Davidson diagonalization with overlap
     ethr =  3.13E-10,  avg # of iterations =  6.0

     total cpu time spent up to now is        3.1 secs

     total energy              =     -61.03778371 Ry
     estimated scf accuracy    <       0.00000013 Ry

     iteration # 11     ecut=    30.00 Ry     beta= 0.50
     Davidson diagonalization with overlap
     ethr =  3.13E-10,  avg # of iterations =  3.0

     total cpu time spent up to now is        3.3 secs

     total energy              =     -61.03778369 Ry
     estimated scf accuracy    <       0.00000001 Ry

     iteration # 12     ecut=    30.00 Ry     beta= 0.50
     Davidson diagonalization with overlap
     ethr =  7.09E-11,  avg # of iterations =  5.0

     total cpu time spent up to now is        3.6 secs

     total energy              =     -61.03778370 Ry
     estimated scf accuracy    <          4.3E-09 Ry

     iteration # 13     ecut=    30.00 Ry     beta= 0.50
     Davidson diagonalization with overlap
     ethr =  2.38E-11,  avg # of iterations =  4.0

     total cpu time spent up to now is        3.9 secs

     total energy              =     -61.03778370 Ry
     estimated scf accuracy    <          8.2E-11 Ry

     iteration # 14     ecut=    30.00 Ry     beta= 0.50
     Davidson diagonalization with overlap
     ethr =  4.53E-13,  avg # of iterations =  5.0

     total cpu time spent up to now is        4.2 secs

     total energy              =     -61.03778370 Ry
     estimated scf accuracy    <          3.3E-10 Ry

     iteration # 15     ecut=    30.00 Ry     beta= 0.50
     Davidson diagonalization with overlap
     ethr =  4.53E-13,  avg # of iterations =  5.0

     total cpu time spent up to now is        4.5 secs

     total energy              =     -61.03778370 Ry
     estimated scf accuracy    <          1.8E-11 Ry

     iteration # 16     ecut=    30.00 Ry     beta= 0.50
     Davidson diagonalization with overlap
     ethr =  1.01E-13,  avg # of iterations =  3.0

     total cpu time spent up to now is        4.7 secs

     End of self-consistent calculation

          k = 0.0000 0.0000 0.0000 ( 11060 PWs)   bands (ev):

   -27.5312 -18.6712 -14.2844 -11.6406 -10.8939 -10.5888  -9.4161  -8.9313
    -5.7024

     highest occupied level (ev):    -5.7024

!    total energy              =     -61.03778370 Ry
     estimated scf accuracy    <          6.0E-13 Ry

     The total energy is the sum of the following terms:
     one-electron contribution =    -154.58842094 Ry
     hartree contribution      =      79.54859011 Ry
     xc contribution           =     -19.34165003 Ry
     ewald contribution        =      33.34369716 Ry

     convergence has been achieved in  16 iterations

     Forces acting on atoms (cartesian axes, Ry/au):

     atom    1 type  1   force =     0.00076096   -0.01579804    0.02217442
     atom    2 type  1   force =    -0.10459280    0.00228434   -0.09127984
     atom    3 type  2   force =     0.11436757   -0.00128650    0.07970491
     atom    4 type  3   force =    -0.00918012    0.00217370    0.00595182
     atom    5 type  3   force =    -0.00600023    0.00244980   -0.00752442
     atom    6 type  3   force =    -0.00197758    0.00717887   -0.00505608
     atom    7 type  3   force =     0.00662220    0.00299785   -0.00397082

     Total force =     0.199564     Total SCF correction =     0.000002

     Writing output data file ./Acetaldehyde.save/

     init_run     :      0.33s CPU      0.36s WALL (       1 calls)
     electrons    :      4.14s CPU      4.26s WALL (       1 calls)
     forces       :      0.23s CPU      0.23s WALL (       1 calls)

     Called by init_run:
     wfcinit      :      0.06s CPU      0.07s WALL (       1 calls)
     potinit      :      0.16s CPU      0.18s WALL (       1 calls)
     hinit0       :      0.09s CPU      0.09s WALL (       1 calls)

     Called by electrons:
     c_bands      :      1.99s CPU      2.00s WALL (      16 calls)
     sum_band     :      0.50s CPU      0.51s WALL (      16 calls)
     v_of_rho     :      1.43s CPU      1.53s WALL (      17 calls)
     mix_rho      :      0.25s CPU      0.26s WALL (      16 calls)

     Called by c_bands:
     init_us_2    :      0.05s CPU      0.05s WALL (      33 calls)
     regterg      :      1.92s CPU      1.94s WALL (      16 calls)

     Called by *egterg:
     rdiaghg      :      0.04s CPU      0.04s WALL (      75 calls)
     h_psi        :      1.74s CPU      1.76s WALL (      76 calls)
     g_psi        :      0.00s CPU      0.00s WALL (      59 calls)

     Called by h_psi:
     h_psi:calbec :      0.20s CPU      0.20s WALL (      76 calls)
     vloc_psi     :      1.40s CPU      1.41s WALL (      76 calls)
     add_vuspsi   :      0.14s CPU      0.14s WALL (      76 calls)

     General routines
     calbec       :      0.21s CPU      0.21s WALL (      80 calls)
     fft          :      0.74s CPU      0.77s WALL (     144 calls)
     ffts         :      0.08s CPU      0.08s WALL (      16 calls)
     fftw         :      1.26s CPU      1.27s WALL (     590 calls)

     Parallel routines

     PWSCF        :      4.81s CPU      4.98s WALL


   This run was terminated on:   7:11:12  24May2021            

=------------------------------------------------------------------------------=
   JOB DONE.
=------------------------------------------------------------------------------=
