
     Program PWSCF v.6.7GPU starts on 24May2021 at  6: 9:12 

     This program is part of the open-source Quantum ESPRESSO suite
     for quantum simulation of materials; please cite
         "P. Giannozzi et al., J. Phys.:Condens. Matter 21 395502 (2009);
         "P. Giannozzi et al., J. Phys.:Condens. Matter 29 465901 (2017);
         "P. Giannozzi et al., J. Chem. Phys. 152 154105 (2020);
          URL http://www.quantum-espresso.org", 
     in publications or presentations arising from this work. More details at
     http://www.quantum-espresso.org/quote

     Parallel version (MPI), running on     4 processors

     MPI processes distributed on     1 nodes
     R & G space division:  proc/nbgrp/npool/nimage =       4
     Waiting for input...
     Reading input from standard input
     Message from routine read_cards :
     DEPRECATED: no units specified in CELL_PARAMETERS card

     Current dimensions of program PWSCF are:
     Max number of different atomic species (ntypx) = 10
     Max number of k-points (npk) =  40000
     Max angular momentum in pseudopotentials (lmaxx) =  3

     gamma-point specific algorithms are used

     Subspace diagonalization in iterative solution of the eigenvalue problem:
     one sub-group per band group will be used
     scalapack distributed-memory algorithm (size of sub-group:  2*  2 procs)


     Parallelization info
     --------------------
     sticks:   dense  smooth     PW     G-vecs:    dense   smooth      PW
     Min        2386    2386    595               175366   175366   21912
     Max        2388    2388    598               175372   175372   21918
     Sum        9549    9549   2385               701475   701475   87655

     Using Slab Decomposition



     bravais-lattice index     =            0
     lattice parameter (alat)  =      20.0000  a.u.
     unit-cell volume          =    8000.0000 (a.u.)^3
     number of atoms/cell      =           15
     number of atomic types    =            3
     number of electrons       =        50.00
     number of Kohn-Sham states=           25
     kinetic-energy cutoff     =      75.0000  Ry
     charge density cutoff     =     300.0000  Ry
     scf convergence threshold =      1.0E-12
     mixing beta               =       0.5000
     number of iterations used =            8  plain     mixing
     Exchange-correlation= PBE
                           (   1   4   3   4   0   0   0)

     celldm(1)=  20.000000  celldm(2)=   0.000000  celldm(3)=   0.000000
     celldm(4)=   0.000000  celldm(5)=   0.000000  celldm(6)=   0.000000

     crystal axes: (cart. coord. in units of alat)
               a(1) = (   1.000000   0.000000   0.000000 )  
               a(2) = (   0.000000   1.000000   0.000000 )  
               a(3) = (   0.000000   0.000000   1.000000 )  

     reciprocal axes: (cart. coord. in units 2 pi/alat)
               b(1) = (  1.000000  0.000000  0.000000 )  
               b(2) = (  0.000000  1.000000  0.000000 )  
               b(3) = (  0.000000  0.000000  1.000000 )  


     PseudoPot. # 1 for C  read from file:
     /home/ciga/builds/pseudo_potentials/C.upf
     MD5 check sum: d80ec9912146af6c4c1760317d1f95e9
     Pseudo is Norm-conserving + core correction, Zval =  4.0
     Generated using ONCVPSP code by D. R. Hamann
     Using radial grid of 1248 points,  4 beta functions with: 
                l(1) =   0
                l(2) =   0
                l(3) =   1
                l(4) =   1

     PseudoPot. # 2 for N  read from file:
     /home/ciga/builds/pseudo_potentials/N.upf
     MD5 check sum: ff7f9f91e4136e6855b4906c31c1cc72
     Pseudo is Norm-conserving + core correction, Zval =  5.0
     Generated using ONCVPSP code by D. R. Hamann
     Using radial grid of 1058 points,  4 beta functions with: 
                l(1) =   0
                l(2) =   0
                l(3) =   1
                l(4) =   1

     PseudoPot. # 3 for H  read from file:
     /home/ciga/builds/pseudo_potentials/H.upf
     MD5 check sum: 418cee52d0c413ae40802e6cc37ab9e3
     Pseudo is Norm-conserving, Zval =  1.0
     Generated using ONCVPSP code by D. R. Hamann
     Using radial grid of 1166 points,  3 beta functions with: 
                l(1) =   0
                l(2) =   0
                l(3) =   1

     atomic species   valence    mass     pseudopotential
        C              4.00    12.01070     C ( 1.00)
        N              5.00    14.00670     N ( 1.00)
        H              1.00     1.00794     H ( 1.00)

     No symmetry found



   Cartesian axes

     site n.     atom                  positions (alat units)
         1           C   tau(   1) = (  -0.0741099   0.0002330   0.0647698  )
         2           C   tau(   2) = (   0.0500950   0.0000866   0.0184432  )
         3           N   tau(   3) = (  -0.1808281   0.0002134  -0.0031627  )
         4           C   tau(   4) = (  -0.1557050  -0.0001826  -0.1272922  )
         5           H   tau(   5) = (  -0.2378211  -0.0004244  -0.1898725  )
         6           N   tau(   6) = (  -0.0428977  -0.0004839  -0.1857395  )
         7           C   tau(   7) = (   0.0625288  -0.0000912  -0.1144027  )
         8           N   tau(   8) = (   0.1765595   0.0017172  -0.1725929  )
         9           H   tau(   9) = (   0.2563546  -0.0075747  -0.1209602  )
        10           H   tau(  10) = (   0.1796318  -0.0076848  -0.2676313  )
        11           N   tau(  11) = (   0.1375435  -0.0002684   0.1157901  )
        12           H   tau(  12) = (   0.1040909  -0.0004357   0.3147743  )
        13           C   tau(  13) = (   0.0677811  -0.0002200   0.2187915  )
        14           N   tau(  14) = (  -0.0602855   0.0001159   0.1943816  )
        15           H   tau(  15) = (  -0.1316315   0.0002109   0.2582171  )

     number of k points=     1
                       cart. coord. in units 2pi/alat
        k(    1) = (   0.0000000   0.0000000   0.0000000), wk =   2.0000000

     Dense  grid:   350738 G-vectors     FFT dimensions: ( 120, 120, 120)

     Estimated max dynamical RAM per process >     111.19 MB

     Estimated total dynamical RAM >     444.77 MB

     Initial potential from superposition of free atoms

     starting charge   49.99969, renormalised to   50.00000

     negative rho (up, down):  1.340E-04 0.000E+00
     Starting wfcs are   45 randomized atomic wfcs

     total cpu time spent up to now is        2.4 secs

     Self-consistent Calculation

     iteration #  1     ecut=    75.00 Ry     beta= 0.50
     Davidson diagonalization with overlap
     ethr =  1.00E-02,  avg # of iterations =  2.0

     negative rho (up, down):  3.761E-05 0.000E+00

     total cpu time spent up to now is        5.6 secs

     total energy              =    -169.49585898 Ry
     estimated scf accuracy    <       1.67920599 Ry

     iteration #  2     ecut=    75.00 Ry     beta= 0.50
     Davidson diagonalization with overlap
     ethr =  3.36E-03,  avg # of iterations =  2.0

     negative rho (up, down):  9.741E-06 0.000E+00

     total cpu time spent up to now is        8.6 secs

     total energy              =    -169.79744681 Ry
     estimated scf accuracy    <       0.12466415 Ry

     iteration #  3     ecut=    75.00 Ry     beta= 0.50
     Davidson diagonalization with overlap
     ethr =  2.49E-04,  avg # of iterations =  2.0

     negative rho (up, down):  8.865E-07 0.000E+00

     total cpu time spent up to now is       11.4 secs

     total energy              =    -169.80252467 Ry
     estimated scf accuracy    <       0.02892184 Ry

     iteration #  4     ecut=    75.00 Ry     beta= 0.50
     Davidson diagonalization with overlap
     ethr =  5.78E-05,  avg # of iterations =  2.0

     negative rho (up, down):  1.364E-07 0.000E+00

     total cpu time spent up to now is       14.5 secs

     total energy              =    -169.80745687 Ry
     estimated scf accuracy    <       0.00369197 Ry

     iteration #  5     ecut=    75.00 Ry     beta= 0.50
     Davidson diagonalization with overlap
     ethr =  7.38E-06,  avg # of iterations =  2.0

     negative rho (up, down):  1.322E-08 0.000E+00

     total cpu time spent up to now is       17.3 secs

     total energy              =    -169.80784304 Ry
     estimated scf accuracy    <       0.00029727 Ry

     iteration #  6     ecut=    75.00 Ry     beta= 0.50
     Davidson diagonalization with overlap
     ethr =  5.95E-07,  avg # of iterations =  5.0

     total cpu time spent up to now is       21.5 secs

     total energy              =    -169.80792043 Ry
     estimated scf accuracy    <       0.00046498 Ry

     iteration #  7     ecut=    75.00 Ry     beta= 0.50
     Davidson diagonalization with overlap
     ethr =  5.95E-07,  avg # of iterations =  3.0

     total cpu time spent up to now is       24.8 secs

     total energy              =    -169.80801609 Ry
     estimated scf accuracy    <       0.00000755 Ry

     iteration #  8     ecut=    75.00 Ry     beta= 0.50
     Davidson diagonalization with overlap
     ethr =  1.51E-08,  avg # of iterations =  7.0

     total cpu time spent up to now is       29.6 secs

     total energy              =    -169.80801871 Ry
     estimated scf accuracy    <       0.00001894 Ry

     iteration #  9     ecut=    75.00 Ry     beta= 0.50
     Davidson diagonalization with overlap
     ethr =  1.51E-08,  avg # of iterations =  3.0

     total cpu time spent up to now is       32.9 secs

     total energy              =    -169.80802149 Ry
     estimated scf accuracy    <       0.00000072 Ry

     iteration # 10     ecut=    75.00 Ry     beta= 0.50
     Davidson diagonalization with overlap
     ethr =  1.43E-09,  avg # of iterations =  6.0

     total cpu time spent up to now is       36.7 secs

     total energy              =    -169.80802180 Ry
     estimated scf accuracy    <       0.00000011 Ry

     iteration # 11     ecut=    75.00 Ry     beta= 0.50
     Davidson diagonalization with overlap
     ethr =  2.28E-10,  avg # of iterations =  6.0

     total cpu time spent up to now is       40.0 secs

     total energy              =    -169.80802184 Ry
     estimated scf accuracy    <       0.00000002 Ry

     iteration # 12     ecut=    75.00 Ry     beta= 0.50
     Davidson diagonalization with overlap
     ethr =  3.50E-11,  avg # of iterations =  5.0

     total cpu time spent up to now is       42.9 secs

     total energy              =    -169.80802184 Ry
     estimated scf accuracy    <          4.4E-09 Ry

     iteration # 13     ecut=    75.00 Ry     beta= 0.50
     Davidson diagonalization with overlap
     ethr =  8.79E-12,  avg # of iterations =  5.0

     total cpu time spent up to now is       46.0 secs

     total energy              =    -169.80802184 Ry
     estimated scf accuracy    <          1.0E-09 Ry

     iteration # 14     ecut=    75.00 Ry     beta= 0.50
     Davidson diagonalization with overlap
     ethr =  2.09E-12,  avg # of iterations =  5.0

     total cpu time spent up to now is       49.4 secs

     total energy              =    -169.80802184 Ry
     estimated scf accuracy    <          1.7E-10 Ry

     iteration # 15     ecut=    75.00 Ry     beta= 0.50
     Davidson diagonalization with overlap
     ethr =  3.36E-13,  avg # of iterations =  5.0

     total cpu time spent up to now is       52.3 secs

     total energy              =    -169.80802184 Ry
     estimated scf accuracy    <          3.4E-11 Ry

     iteration # 16     ecut=    75.00 Ry     beta= 0.50
     Davidson diagonalization with overlap
     ethr =  1.00E-13,  avg # of iterations =  4.0

     total cpu time spent up to now is       55.1 secs

     total energy              =    -169.80802184 Ry
     estimated scf accuracy    <          6.6E-12 Ry

     iteration # 17     ecut=    75.00 Ry     beta= 0.50
     Davidson diagonalization with overlap
     ethr =  1.00E-13,  avg # of iterations =  2.0

     total cpu time spent up to now is       57.5 secs

     End of self-consistent calculation

          k = 0.0000 0.0000 0.0000 ( 43828 PWs)   bands (ev):

   -25.1761 -23.6843 -22.6059 -21.3755 -20.5940 -18.1723 -15.7804 -15.3523
   -14.8124 -13.6547 -12.9166 -11.9250 -11.5613 -10.7333 -10.4343  -9.9944
    -9.4043  -9.1602  -8.0323  -6.6803  -6.4549  -5.8705  -5.8626  -5.0190
    -4.7072

     highest occupied level (ev):    -4.7072

!    total energy              =    -169.80802184 Ry
     estimated scf accuracy    <          9.5E-13 Ry

     The total energy is the sum of the following terms:
     one-electron contribution =    -590.21463823 Ry
     hartree contribution      =     302.45155964 Ry
     xc contribution           =     -55.39780701 Ry
     ewald contribution        =     173.35286376 Ry

     convergence has been achieved in  17 iterations

     Forces acting on atoms (cartesian axes, Ry/au):

     atom    1 type  1   force =     0.00159232   -0.00000066    0.00320045
     atom    2 type  1   force =     0.00050066   -0.00007488   -0.00221746
     atom    3 type  2   force =     0.00022467    0.00003718   -0.00116502
     atom    4 type  1   force =    -0.00309906   -0.00007557   -0.00172962
     atom    5 type  3   force =     0.00074395    0.00000681    0.00066702
     atom    6 type  2   force =    -0.00054281    0.00000272   -0.00017592
     atom    7 type  1   force =     0.00270715    0.00037184    0.00027518
     atom    8 type  2   force =     0.00202991   -0.00144504   -0.00147819
     atom    9 type  3   force =    -0.00201831    0.00064590   -0.00141068
     atom   10 type  3   force =     0.00015455    0.00050299    0.00378924
     atom   11 type  2   force =    -0.00109959   -0.00000734   -0.00141762
     atom   12 type  3   force =    -0.00086290    0.00003436   -0.00130170
     atom   13 type  1   force =     0.00098870   -0.00001593    0.00289128
     atom   14 type  2   force =    -0.00328773    0.00001680    0.00137669
     atom   15 type  3   force =     0.00196848    0.00000084   -0.00130366

     Total force =     0.010179     Total SCF correction =     0.000001

     Writing output data file ./Adenine.save/

     init_run     :      2.25s CPU      2.33s WALL (       1 calls)
     electrons    :     54.30s CPU     55.10s WALL (       1 calls)
     forces       :      1.33s CPU      1.37s WALL (       1 calls)

     Called by init_run:
     wfcinit      :      1.29s CPU      1.30s WALL (       1 calls)
     potinit      :      0.59s CPU      0.63s WALL (       1 calls)
     hinit0       :      0.24s CPU      0.26s WALL (       1 calls)

     Called by electrons:
     c_bands      :     40.30s CPU     40.57s WALL (      17 calls)
     sum_band     :      5.95s CPU      6.01s WALL (      17 calls)
     v_of_rho     :      6.45s CPU      6.91s WALL (      18 calls)
     mix_rho      :      1.77s CPU      1.79s WALL (      17 calls)

     Called by c_bands:
     init_us_2    :      0.33s CPU      0.34s WALL (      35 calls)
     regterg      :     39.85s CPU     40.11s WALL (      17 calls)

     Called by *egterg:
     rdiaghg      :      0.12s CPU      0.12s WALL (      83 calls)
     h_psi        :     32.42s CPU     32.65s WALL (      84 calls)
     g_psi        :      0.08s CPU      0.08s WALL (      66 calls)

     Called by h_psi:
     h_psi:calbec :      4.47s CPU      4.48s WALL (      84 calls)
     vloc_psi     :     24.08s CPU     24.29s WALL (      84 calls)
     add_vuspsi   :      3.70s CPU      3.72s WALL (      84 calls)

     General routines
     calbec       :      4.82s CPU      4.83s WALL (      88 calls)
     fft          :      4.40s CPU      4.50s WALL (     152 calls)
     ffts         :      0.48s CPU      0.48s WALL (      17 calls)
     fftw         :     22.36s CPU     22.53s WALL (    1619 calls)

     Parallel routines

     PWSCF        :     57.99s CPU     58.96s WALL


   This run was terminated on:   6:10:11  24May2021            

=------------------------------------------------------------------------------=
   JOB DONE.
=------------------------------------------------------------------------------=
