
     Program PWSCF v.6.7GPU starts on 24May2021 at  6: 4:53 

     This program is part of the open-source Quantum ESPRESSO suite
     for quantum simulation of materials; please cite
         "P. Giannozzi et al., J. Phys.:Condens. Matter 21 395502 (2009);
         "P. Giannozzi et al., J. Phys.:Condens. Matter 29 465901 (2017);
         "P. Giannozzi et al., J. Chem. Phys. 152 154105 (2020);
          URL http://www.quantum-espresso.org", 
     in publications or presentations arising from this work. More details at
     http://www.quantum-espresso.org/quote

     Parallel version (MPI), running on     4 processors

     MPI processes distributed on     1 nodes
     R & G space division:  proc/nbgrp/npool/nimage =       4
     Waiting for input...
     Reading input from standard input
     Message from routine read_cards :
     DEPRECATED: no units specified in CELL_PARAMETERS card

     Current dimensions of program PWSCF are:
     Max number of different atomic species (ntypx) = 10
     Max number of k-points (npk) =  40000
     Max angular momentum in pseudopotentials (lmaxx) =  3

     gamma-point specific algorithms are used

     Subspace diagonalization in iterative solution of the eigenvalue problem:
     one sub-group per band group will be used
     scalapack distributed-memory algorithm (size of sub-group:  2*  2 procs)


     Parallelization info
     --------------------
     sticks:   dense  smooth     PW     G-vecs:    dense   smooth      PW
     Min        1271    1271    317                68355    68355    8565
     Max        1276    1276    322                68358    68358    8568
     Sum        5097    5097   1281               273425   273425   34265

     Using Slab Decomposition



     bravais-lattice index     =            0
     lattice parameter (alat)  =      20.0000  a.u.
     unit-cell volume          =    8000.0000 (a.u.)^3
     number of atoms/cell      =           15
     number of atomic types    =            3
     number of electrons       =        50.00
     number of Kohn-Sham states=           25
     kinetic-energy cutoff     =      40.0000  Ry
     charge density cutoff     =     160.0000  Ry
     scf convergence threshold =      1.0E-12
     mixing beta               =       0.5000
     number of iterations used =            8  plain     mixing
     Exchange-correlation= PBE
                           (   1   4   3   4   0   0   0)

     celldm(1)=  20.000000  celldm(2)=   0.000000  celldm(3)=   0.000000
     celldm(4)=   0.000000  celldm(5)=   0.000000  celldm(6)=   0.000000

     crystal axes: (cart. coord. in units of alat)
               a(1) = (   1.000000   0.000000   0.000000 )  
               a(2) = (   0.000000   1.000000   0.000000 )  
               a(3) = (   0.000000   0.000000   1.000000 )  

     reciprocal axes: (cart. coord. in units 2 pi/alat)
               b(1) = (  1.000000  0.000000  0.000000 )  
               b(2) = (  0.000000  1.000000  0.000000 )  
               b(3) = (  0.000000  0.000000  1.000000 )  


     PseudoPot. # 1 for C  read from file:
     /home/ciga/builds/pseudo_potentials/C.upf
     MD5 check sum: d80ec9912146af6c4c1760317d1f95e9
     Pseudo is Norm-conserving + core correction, Zval =  4.0
     Generated using ONCVPSP code by D. R. Hamann
     Using radial grid of 1248 points,  4 beta functions with: 
                l(1) =   0
                l(2) =   0
                l(3) =   1
                l(4) =   1

     PseudoPot. # 2 for N  read from file:
     /home/ciga/builds/pseudo_potentials/N.upf
     MD5 check sum: ff7f9f91e4136e6855b4906c31c1cc72
     Pseudo is Norm-conserving + core correction, Zval =  5.0
     Generated using ONCVPSP code by D. R. Hamann
     Using radial grid of 1058 points,  4 beta functions with: 
                l(1) =   0
                l(2) =   0
                l(3) =   1
                l(4) =   1

     PseudoPot. # 3 for H  read from file:
     /home/ciga/builds/pseudo_potentials/H.upf
     MD5 check sum: 418cee52d0c413ae40802e6cc37ab9e3
     Pseudo is Norm-conserving, Zval =  1.0
     Generated using ONCVPSP code by D. R. Hamann
     Using radial grid of 1166 points,  3 beta functions with: 
                l(1) =   0
                l(2) =   0
                l(3) =   1

     atomic species   valence    mass     pseudopotential
        C              4.00    12.01070     C ( 1.00)
        N              5.00    14.00670     N ( 1.00)
        H              1.00     1.00794     H ( 1.00)

     No symmetry found



   Cartesian axes

     site n.     atom                  positions (alat units)
         1           C   tau(   1) = (  -0.0741099   0.0002330   0.0647698  )
         2           C   tau(   2) = (   0.0500950   0.0000866   0.0184432  )
         3           N   tau(   3) = (  -0.1808281   0.0002134  -0.0031627  )
         4           C   tau(   4) = (  -0.1557050  -0.0001826  -0.1272922  )
         5           H   tau(   5) = (  -0.2378211  -0.0004244  -0.1898725  )
         6           N   tau(   6) = (  -0.0428977  -0.0004839  -0.1857395  )
         7           C   tau(   7) = (   0.0625288  -0.0000912  -0.1144027  )
         8           N   tau(   8) = (   0.1765595   0.0017172  -0.1725929  )
         9           H   tau(   9) = (   0.2563546  -0.0075747  -0.1209602  )
        10           H   tau(  10) = (   0.1796318  -0.0076848  -0.2676313  )
        11           N   tau(  11) = (   0.1375435  -0.0002684   0.1157901  )
        12           H   tau(  12) = (   0.1040909  -0.0004357   0.3147743  )
        13           C   tau(  13) = (   0.0677811  -0.0002200   0.2187915  )
        14           N   tau(  14) = (  -0.0602855   0.0001159   0.1943816  )
        15           H   tau(  15) = (  -0.1316315   0.0002109   0.2582171  )

     number of k points=     1
                       cart. coord. in units 2pi/alat
        k(    1) = (   0.0000000   0.0000000   0.0000000), wk =   2.0000000

     Dense  grid:   136713 G-vectors     FFT dimensions: (  81,  81,  81)

     Estimated max dynamical RAM per process >      41.66 MB

     Estimated total dynamical RAM >     166.62 MB

     Check: negative core charge=   -0.000011

     Initial potential from superposition of free atoms

     starting charge   49.99969, renormalised to   50.00000

     negative rho (up, down):  6.655E-03 0.000E+00
     Starting wfcs are   45 randomized atomic wfcs

     total cpu time spent up to now is        0.9 secs

     Self-consistent Calculation

     iteration #  1     ecut=    40.00 Ry     beta= 0.50
     Davidson diagonalization with overlap
     ethr =  1.00E-02,  avg # of iterations =  2.0

     negative rho (up, down):  3.091E-03 0.000E+00

     total cpu time spent up to now is        2.0 secs

     total energy              =    -168.85289927 Ry
     estimated scf accuracy    <       1.43643501 Ry

     iteration #  2     ecut=    40.00 Ry     beta= 0.50
     Davidson diagonalization with overlap
     ethr =  2.87E-03,  avg # of iterations =  2.0

     negative rho (up, down):  1.256E-03 0.000E+00

     total cpu time spent up to now is        3.0 secs

     total energy              =    -169.08845945 Ry
     estimated scf accuracy    <       0.11919355 Ry

     iteration #  3     ecut=    40.00 Ry     beta= 0.50
     Davidson diagonalization with overlap
     ethr =  2.38E-04,  avg # of iterations =  2.0

     negative rho (up, down):  1.070E-04 0.000E+00

     total cpu time spent up to now is        3.9 secs

     total energy              =    -169.09242695 Ry
     estimated scf accuracy    <       0.02452559 Ry

     iteration #  4     ecut=    40.00 Ry     beta= 0.50
     Davidson diagonalization with overlap
     ethr =  4.91E-05,  avg # of iterations =  2.0

     negative rho (up, down):  1.184E-05 0.000E+00

     total cpu time spent up to now is        4.9 secs

     total energy              =    -169.09616624 Ry
     estimated scf accuracy    <       0.00266267 Ry

     iteration #  5     ecut=    40.00 Ry     beta= 0.50
     Davidson diagonalization with overlap
     ethr =  5.33E-06,  avg # of iterations =  2.0

     negative rho (up, down):  1.105E-07 0.000E+00

     total cpu time spent up to now is        5.9 secs

     total energy              =    -169.09656788 Ry
     estimated scf accuracy    <       0.00016605 Ry

     iteration #  6     ecut=    40.00 Ry     beta= 0.50
     Davidson diagonalization with overlap
     ethr =  3.32E-07,  avg # of iterations =  5.0

     total cpu time spent up to now is        7.2 secs

     total energy              =    -169.09661012 Ry
     estimated scf accuracy    <       0.00019827 Ry

     iteration #  7     ecut=    40.00 Ry     beta= 0.50
     Davidson diagonalization with overlap
     ethr =  3.32E-07,  avg # of iterations =  3.0

     total cpu time spent up to now is        8.2 secs

     total energy              =    -169.09665755 Ry
     estimated scf accuracy    <       0.00000604 Ry

     iteration #  8     ecut=    40.00 Ry     beta= 0.50
     Davidson diagonalization with overlap
     ethr =  1.21E-08,  avg # of iterations =  6.0

     total cpu time spent up to now is        9.5 secs

     total energy              =    -169.09665676 Ry
     estimated scf accuracy    <       0.00000963 Ry

     iteration #  9     ecut=    40.00 Ry     beta= 0.50
     Davidson diagonalization with overlap
     ethr =  1.21E-08,  avg # of iterations =  4.0

     total cpu time spent up to now is       10.6 secs

     total energy              =    -169.09665907 Ry
     estimated scf accuracy    <       0.00000023 Ry

     iteration # 10     ecut=    40.00 Ry     beta= 0.50
     Davidson diagonalization with overlap
     ethr =  4.67E-10,  avg # of iterations =  6.0

     total cpu time spent up to now is       11.7 secs

     total energy              =    -169.09665909 Ry
     estimated scf accuracy    <       0.00000013 Ry

     iteration # 11     ecut=    40.00 Ry     beta= 0.50
     Davidson diagonalization with overlap
     ethr =  2.55E-10,  avg # of iterations =  5.0

     total cpu time spent up to now is       12.8 secs

     total energy              =    -169.09665912 Ry
     estimated scf accuracy    <       0.00000001 Ry

     iteration # 12     ecut=    40.00 Ry     beta= 0.50
     Davidson diagonalization with overlap
     ethr =  2.96E-11,  avg # of iterations =  5.0

     total cpu time spent up to now is       13.7 secs

     total energy              =    -169.09665912 Ry
     estimated scf accuracy    <          6.8E-10 Ry

     iteration # 13     ecut=    40.00 Ry     beta= 0.50
     Davidson diagonalization with overlap
     ethr =  1.36E-12,  avg # of iterations =  5.0

     total cpu time spent up to now is       14.9 secs

     total energy              =    -169.09665912 Ry
     estimated scf accuracy    <          4.3E-10 Ry

     iteration # 14     ecut=    40.00 Ry     beta= 0.50
     Davidson diagonalization with overlap
     ethr =  8.59E-13,  avg # of iterations =  5.0

     total cpu time spent up to now is       16.0 secs

     total energy              =    -169.09665912 Ry
     estimated scf accuracy    <          4.3E-11 Ry

     iteration # 15     ecut=    40.00 Ry     beta= 0.50
     Davidson diagonalization with overlap
     ethr =  1.00E-13,  avg # of iterations =  4.0

     total cpu time spent up to now is       16.9 secs

     total energy              =    -169.09665912 Ry
     estimated scf accuracy    <          3.3E-12 Ry

     iteration # 16     ecut=    40.00 Ry     beta= 0.50
     Davidson diagonalization with overlap
     ethr =  1.00E-13,  avg # of iterations =  1.0

     total cpu time spent up to now is       17.6 secs

     End of self-consistent calculation

          k = 0.0000 0.0000 0.0000 ( 17133 PWs)   bands (ev):

   -25.3479 -23.8521 -22.7711 -21.5396 -20.7553 -18.2867 -15.8540 -15.4232
   -14.8716 -13.6814 -12.9378 -11.9439 -11.5590 -10.7545 -10.4280  -9.9767
    -9.3822  -9.1726  -8.0362  -6.7177  -6.4447  -5.8777  -5.8531  -5.0087
    -4.6798

     highest occupied level (ev):    -4.6798

!    total energy              =    -169.09665912 Ry
     estimated scf accuracy    <          4.0E-13 Ry

     The total energy is the sum of the following terms:
     one-electron contribution =    -588.89479989 Ry
     hartree contribution      =     301.60663396 Ry
     xc contribution           =     -55.16135718 Ry
     ewald contribution        =     173.35286399 Ry

     convergence has been achieved in  16 iterations

     Forces acting on atoms (cartesian axes, Ry/au):

     atom    1 type  1   force =    -0.01089469    0.00005626    0.00012014
     atom    2 type  1   force =     0.00557747    0.00000123   -0.00084211
     atom    3 type  2   force =    -0.00646945    0.00001980    0.00008568
     atom    4 type  1   force =    -0.00591945   -0.00002880   -0.00138562
     atom    5 type  3   force =     0.00018764    0.00000704    0.00010755
     atom    6 type  2   force =    -0.00303065   -0.00011454   -0.00803533
     atom    7 type  1   force =     0.00424811    0.00001772   -0.00581837
     atom    8 type  2   force =     0.00379562    0.00044271   -0.00160936
     atom    9 type  3   force =     0.00267347   -0.00022385    0.00112689
     atom   10 type  3   force =     0.00075818   -0.00018404   -0.00140918
     atom   11 type  2   force =     0.01303558   -0.00002994    0.00484686
     atom   12 type  3   force =    -0.00052430    0.00003630   -0.00008013
     atom   13 type  1   force =     0.00990168   -0.00006122    0.00445311
     atom   14 type  2   force =    -0.01080965    0.00005591    0.00569723
     atom   15 type  3   force =    -0.00252956    0.00000542    0.00274266

     Total force =     0.029294     Total SCF correction =     0.000001

     Writing output data file ./Adenine.save/

     init_run     :      0.81s CPU      0.86s WALL (       1 calls)
     electrons    :     16.44s CPU     16.68s WALL (       1 calls)
     forces       :      0.54s CPU      0.54s WALL (       1 calls)

     Called by init_run:
     wfcinit      :      0.42s CPU      0.43s WALL (       1 calls)
     potinit      :      0.24s CPU      0.26s WALL (       1 calls)
     hinit0       :      0.11s CPU      0.13s WALL (       1 calls)

     Called by electrons:
     c_bands      :     12.02s CPU     12.13s WALL (      16 calls)
     sum_band     :      1.73s CPU      1.75s WALL (      16 calls)
     v_of_rho     :      2.24s CPU      2.38s WALL (      17 calls)
     mix_rho      :      0.48s CPU      0.48s WALL (      16 calls)

     Called by c_bands:
     init_us_2    :      0.12s CPU      0.13s WALL (      33 calls)
     regterg      :     11.85s CPU     11.96s WALL (      16 calls)

     Called by *egterg:
     rdiaghg      :      0.10s CPU      0.10s WALL (      75 calls)
     h_psi        :      9.65s CPU      9.74s WALL (      76 calls)
     g_psi        :      0.02s CPU      0.02s WALL (      59 calls)

     Called by h_psi:
     h_psi:calbec :      1.64s CPU      1.64s WALL (      76 calls)
     vloc_psi     :      6.68s CPU      6.77s WALL (      76 calls)
     add_vuspsi   :      1.27s CPU      1.28s WALL (      76 calls)

     General routines
     calbec       :      1.77s CPU      1.77s WALL (      80 calls)
     fft          :      1.37s CPU      1.41s WALL (     144 calls)
     ffts         :      0.15s CPU      0.15s WALL (      16 calls)
     fftw         :      6.25s CPU      6.33s WALL (    1492 calls)

     Parallel routines

     PWSCF        :     17.88s CPU     18.19s WALL


   This run was terminated on:   6: 5:11  24May2021            

=------------------------------------------------------------------------------=
   JOB DONE.
=------------------------------------------------------------------------------=
