
     Program PWSCF v.6.7GPU starts on 24May2021 at  6: 4:25 

     This program is part of the open-source Quantum ESPRESSO suite
     for quantum simulation of materials; please cite
         "P. Giannozzi et al., J. Phys.:Condens. Matter 21 395502 (2009);
         "P. Giannozzi et al., J. Phys.:Condens. Matter 29 465901 (2017);
         "P. Giannozzi et al., J. Chem. Phys. 152 154105 (2020);
          URL http://www.quantum-espresso.org", 
     in publications or presentations arising from this work. More details at
     http://www.quantum-espresso.org/quote

     Parallel version (MPI), running on     4 processors

     MPI processes distributed on     1 nodes
     R & G space division:  proc/nbgrp/npool/nimage =       4
     Waiting for input...
     Reading input from standard input
     Message from routine read_cards :
     DEPRECATED: no units specified in CELL_PARAMETERS card

     Current dimensions of program PWSCF are:
     Max number of different atomic species (ntypx) = 10
     Max number of k-points (npk) =  40000
     Max angular momentum in pseudopotentials (lmaxx) =  3

     gamma-point specific algorithms are used

     Subspace diagonalization in iterative solution of the eigenvalue problem:
     one sub-group per band group will be used
     scalapack distributed-memory algorithm (size of sub-group:  2*  2 procs)


     Parallelization info
     --------------------
     sticks:   dense  smooth     PW     G-vecs:    dense   smooth      PW
     Min         951     951    236                44375    44375    5524
     Max         954     954    238                44382    44382    5534
     Sum        3809    3809    949               177509   177509   22119

     Using Slab Decomposition



     bravais-lattice index     =            0
     lattice parameter (alat)  =      20.0000  a.u.
     unit-cell volume          =    8000.0000 (a.u.)^3
     number of atoms/cell      =           15
     number of atomic types    =            3
     number of electrons       =        50.00
     number of Kohn-Sham states=           25
     kinetic-energy cutoff     =      30.0000  Ry
     charge density cutoff     =     120.0000  Ry
     scf convergence threshold =      1.0E-12
     mixing beta               =       0.5000
     number of iterations used =            8  plain     mixing
     Exchange-correlation= PBE
                           (   1   4   3   4   0   0   0)

     celldm(1)=  20.000000  celldm(2)=   0.000000  celldm(3)=   0.000000
     celldm(4)=   0.000000  celldm(5)=   0.000000  celldm(6)=   0.000000

     crystal axes: (cart. coord. in units of alat)
               a(1) = (   1.000000   0.000000   0.000000 )  
               a(2) = (   0.000000   1.000000   0.000000 )  
               a(3) = (   0.000000   0.000000   1.000000 )  

     reciprocal axes: (cart. coord. in units 2 pi/alat)
               b(1) = (  1.000000  0.000000  0.000000 )  
               b(2) = (  0.000000  1.000000  0.000000 )  
               b(3) = (  0.000000  0.000000  1.000000 )  


     PseudoPot. # 1 for C  read from file:
     /home/ciga/builds/pseudo_potentials/C.upf
     MD5 check sum: d80ec9912146af6c4c1760317d1f95e9
     Pseudo is Norm-conserving + core correction, Zval =  4.0
     Generated using ONCVPSP code by D. R. Hamann
     Using radial grid of 1248 points,  4 beta functions with: 
                l(1) =   0
                l(2) =   0
                l(3) =   1
                l(4) =   1

     PseudoPot. # 2 for N  read from file:
     /home/ciga/builds/pseudo_potentials/N.upf
     MD5 check sum: ff7f9f91e4136e6855b4906c31c1cc72
     Pseudo is Norm-conserving + core correction, Zval =  5.0
     Generated using ONCVPSP code by D. R. Hamann
     Using radial grid of 1058 points,  4 beta functions with: 
                l(1) =   0
                l(2) =   0
                l(3) =   1
                l(4) =   1

     PseudoPot. # 3 for H  read from file:
     /home/ciga/builds/pseudo_potentials/H.upf
     MD5 check sum: 418cee52d0c413ae40802e6cc37ab9e3
     Pseudo is Norm-conserving, Zval =  1.0
     Generated using ONCVPSP code by D. R. Hamann
     Using radial grid of 1166 points,  3 beta functions with: 
                l(1) =   0
                l(2) =   0
                l(3) =   1

     atomic species   valence    mass     pseudopotential
        C              4.00    12.01070     C ( 1.00)
        N              5.00    14.00670     N ( 1.00)
        H              1.00     1.00794     H ( 1.00)

     No symmetry found



   Cartesian axes

     site n.     atom                  positions (alat units)
         1           C   tau(   1) = (  -0.0741099   0.0002330   0.0647698  )
         2           C   tau(   2) = (   0.0500950   0.0000866   0.0184432  )
         3           N   tau(   3) = (  -0.1808281   0.0002134  -0.0031627  )
         4           C   tau(   4) = (  -0.1557050  -0.0001826  -0.1272922  )
         5           H   tau(   5) = (  -0.2378211  -0.0004244  -0.1898725  )
         6           N   tau(   6) = (  -0.0428977  -0.0004839  -0.1857395  )
         7           C   tau(   7) = (   0.0625288  -0.0000912  -0.1144027  )
         8           N   tau(   8) = (   0.1765595   0.0017172  -0.1725929  )
         9           H   tau(   9) = (   0.2563546  -0.0075747  -0.1209602  )
        10           H   tau(  10) = (   0.1796318  -0.0076848  -0.2676313  )
        11           N   tau(  11) = (   0.1375435  -0.0002684   0.1157901  )
        12           H   tau(  12) = (   0.1040909  -0.0004357   0.3147743  )
        13           C   tau(  13) = (   0.0677811  -0.0002200   0.2187915  )
        14           N   tau(  14) = (  -0.0602855   0.0001159   0.1943816  )
        15           H   tau(  15) = (  -0.1316315   0.0002109   0.2582171  )

     number of k points=     1
                       cart. coord. in units 2pi/alat
        k(    1) = (   0.0000000   0.0000000   0.0000000), wk =   2.0000000

     Dense  grid:    88755 G-vectors     FFT dimensions: (  72,  72,  72)

     Estimated max dynamical RAM per process >      27.51 MB

     Estimated total dynamical RAM >     110.05 MB

     Check: negative core charge=   -0.000063

     Initial potential from superposition of free atoms

     starting charge   49.99969, renormalised to   50.00000

     negative rho (up, down):  3.645E-02 0.000E+00
     Starting wfcs are   45 randomized atomic wfcs

     total cpu time spent up to now is        0.6 secs

     Self-consistent Calculation

     iteration #  1     ecut=    30.00 Ry     beta= 0.50
     Davidson diagonalization with overlap
     ethr =  1.00E-02,  avg # of iterations =  2.0

     negative rho (up, down):  1.720E-02 0.000E+00

     total cpu time spent up to now is        1.2 secs

     total energy              =    -167.59147441 Ry
     estimated scf accuracy    <       1.07040264 Ry

     iteration #  2     ecut=    30.00 Ry     beta= 0.50
     Davidson diagonalization with overlap
     ethr =  2.14E-03,  avg # of iterations =  2.0

     negative rho (up, down):  6.268E-03 0.000E+00

     total cpu time spent up to now is        1.8 secs

     total energy              =    -167.71896511 Ry
     estimated scf accuracy    <       0.11450796 Ry

     iteration #  3     ecut=    30.00 Ry     beta= 0.50
     Davidson diagonalization with overlap
     ethr =  2.29E-04,  avg # of iterations =  2.0

     negative rho (up, down):  4.836E-04 0.000E+00

     total cpu time spent up to now is        2.3 secs

     total energy              =    -167.72324894 Ry
     estimated scf accuracy    <       0.01768062 Ry

     iteration #  4     ecut=    30.00 Ry     beta= 0.50
     Davidson diagonalization with overlap
     ethr =  3.54E-05,  avg # of iterations =  2.0

     negative rho (up, down):  2.409E-05 0.000E+00

     total cpu time spent up to now is        2.8 secs

     total energy              =    -167.72540411 Ry
     estimated scf accuracy    <       0.00079893 Ry

     iteration #  5     ecut=    30.00 Ry     beta= 0.50
     Davidson diagonalization with overlap
     ethr =  1.60E-06,  avg # of iterations =  5.0

     negative rho (up, down):  1.006E-06 0.000E+00

     total cpu time spent up to now is        3.5 secs

     total energy              =    -167.72560361 Ry
     estimated scf accuracy    <       0.00011667 Ry

     iteration #  6     ecut=    30.00 Ry     beta= 0.50
     Davidson diagonalization with overlap
     ethr =  2.33E-07,  avg # of iterations =  5.0

     total cpu time spent up to now is        4.2 secs

     total energy              =    -167.72563643 Ry
     estimated scf accuracy    <       0.00001735 Ry

     iteration #  7     ecut=    30.00 Ry     beta= 0.50
     Davidson diagonalization with overlap
     ethr =  3.47E-08,  avg # of iterations =  4.0

     total cpu time spent up to now is        4.8 secs

     total energy              =    -167.72563799 Ry
     estimated scf accuracy    <       0.00000351 Ry

     iteration #  8     ecut=    30.00 Ry     beta= 0.50
     Davidson diagonalization with overlap
     ethr =  7.01E-09,  avg # of iterations =  5.0

     total cpu time spent up to now is        5.4 secs

     total energy              =    -167.72563903 Ry
     estimated scf accuracy    <       0.00000188 Ry

     iteration #  9     ecut=    30.00 Ry     beta= 0.50
     Davidson diagonalization with overlap
     ethr =  3.75E-09,  avg # of iterations =  3.0

     total cpu time spent up to now is        5.9 secs

     total energy              =    -167.72563900 Ry
     estimated scf accuracy    <       0.00000034 Ry

     iteration # 10     ecut=    30.00 Ry     beta= 0.50
     Davidson diagonalization with overlap
     ethr =  6.73E-10,  avg # of iterations =  5.0

     total cpu time spent up to now is        6.6 secs

     total energy              =    -167.72563912 Ry
     estimated scf accuracy    <       0.00000009 Ry

     iteration # 11     ecut=    30.00 Ry     beta= 0.50
     Davidson diagonalization with overlap
     ethr =  1.87E-10,  avg # of iterations =  3.0

     total cpu time spent up to now is        7.2 secs

     total energy              =    -167.72563912 Ry
     estimated scf accuracy    <       0.00000002 Ry

     iteration # 12     ecut=    30.00 Ry     beta= 0.50
     Davidson diagonalization with overlap
     ethr =  3.00E-11,  avg # of iterations =  5.0

     total cpu time spent up to now is        7.8 secs

     total energy              =    -167.72563913 Ry
     estimated scf accuracy    <          2.6E-09 Ry

     iteration # 13     ecut=    30.00 Ry     beta= 0.50
     Davidson diagonalization with overlap
     ethr =  5.26E-12,  avg # of iterations =  5.0

     total cpu time spent up to now is        8.4 secs

     total energy              =    -167.72563913 Ry
     estimated scf accuracy    <          2.2E-10 Ry

     iteration # 14     ecut=    30.00 Ry     beta= 0.50
     Davidson diagonalization with overlap
     ethr =  4.48E-13,  avg # of iterations =  5.0

     total cpu time spent up to now is        9.0 secs

     total energy              =    -167.72563913 Ry
     estimated scf accuracy    <          6.0E-11 Ry

     iteration # 15     ecut=    30.00 Ry     beta= 0.50
     Davidson diagonalization with overlap
     ethr =  1.20E-13,  avg # of iterations =  5.0

     total cpu time spent up to now is        9.6 secs

     total energy              =    -167.72563913 Ry
     estimated scf accuracy    <          4.3E-12 Ry

     iteration # 16     ecut=    30.00 Ry     beta= 0.50
     Davidson diagonalization with overlap
     ethr =  1.00E-13,  avg # of iterations =  1.0

     total cpu time spent up to now is       10.1 secs

     total energy              =    -167.72563913 Ry
     estimated scf accuracy    <          1.8E-12 Ry

     iteration # 17     ecut=    30.00 Ry     beta= 0.50
     Davidson diagonalization with overlap
     ethr =  1.00E-13,  avg # of iterations =  1.0

     total cpu time spent up to now is       10.5 secs

     End of self-consistent calculation

          k = 0.0000 0.0000 0.0000 ( 11060 PWs)   bands (ev):

   -25.6399 -24.1524 -23.0846 -21.8707 -21.1052 -18.4717 -16.0191 -15.5880
   -15.0240 -13.7768 -13.0248 -12.0170 -11.6374 -10.7930 -10.4843 -10.0190
    -9.4347  -9.1967  -8.0545  -6.8368  -6.4221  -5.9314  -5.8357  -5.0177
    -4.6482

     highest occupied level (ev):    -4.6482

!    total energy              =    -167.72563913 Ry
     estimated scf accuracy    <          2.5E-13 Ry

     The total energy is the sum of the following terms:
     one-electron contribution =    -586.06054420 Ry
     hartree contribution      =     299.76255732 Ry
     xc contribution           =     -54.78051624 Ry
     ewald contribution        =     173.35286399 Ry

     convergence has been achieved in  17 iterations

     Forces acting on atoms (cartesian axes, Ry/au):

     atom    1 type  1   force =     0.01489411    0.00002908    0.01139306
     atom    2 type  1   force =     0.00619628    0.00003116    0.00178837
     atom    3 type  2   force =    -0.02806974    0.00015955    0.00846752
     atom    4 type  1   force =     0.00916506    0.00015209    0.00335093
     atom    5 type  3   force =    -0.01561906   -0.00007981   -0.01168830
     atom    6 type  2   force =     0.00546311   -0.00006391   -0.02181194
     atom    7 type  1   force =     0.00043296   -0.00087785    0.01087540
     atom    8 type  2   force =    -0.03458743    0.01119755    0.01390795
     atom    9 type  3   force =     0.03809013   -0.00507569    0.02433038
     atom   10 type  3   force =     0.00245838   -0.00517675   -0.04457911
     atom   11 type  2   force =     0.02052633   -0.00028123   -0.02475499
     atom   12 type  3   force =     0.00653913   -0.00002592    0.01802074
     atom   13 type  1   force =    -0.02629945    0.00009529    0.00917552
     atom   14 type  2   force =     0.03363550   -0.00011330   -0.02839252
     atom   15 type  3   force =    -0.03282534    0.00002974    0.02991696

     Total force =     0.118512     Total SCF correction =     0.000001

     Writing output data file ./Adenine.save/

     init_run     :      0.52s CPU      0.54s WALL (       1 calls)
     electrons    :      9.69s CPU      9.86s WALL (       1 calls)
     forces       :      0.35s CPU      0.36s WALL (       1 calls)

     Called by init_run:
     wfcinit      :      0.23s CPU      0.24s WALL (       1 calls)
     potinit      :      0.17s CPU      0.18s WALL (       1 calls)
     hinit0       :      0.10s CPU      0.10s WALL (       1 calls)

     Called by electrons:
     c_bands      :      6.88s CPU      6.94s WALL (      17 calls)
     sum_band     :      1.03s CPU      1.04s WALL (      17 calls)
     v_of_rho     :      1.52s CPU      1.63s WALL (      18 calls)
     mix_rho      :      0.28s CPU      0.28s WALL (      17 calls)

     Called by c_bands:
     init_us_2    :      0.08s CPU      0.09s WALL (      35 calls)
     regterg      :      6.76s CPU      6.82s WALL (      17 calls)

     Called by *egterg:
     rdiaghg      :      0.09s CPU      0.09s WALL (      77 calls)
     h_psi        :      5.45s CPU      5.50s WALL (      78 calls)
     g_psi        :      0.01s CPU      0.01s WALL (      60 calls)

     Called by h_psi:
     h_psi:calbec :      1.05s CPU      1.06s WALL (      78 calls)
     vloc_psi     :      3.55s CPU      3.59s WALL (      78 calls)
     add_vuspsi   :      0.81s CPU      0.82s WALL (      78 calls)

     General routines
     calbec       :      1.14s CPU      1.14s WALL (      82 calls)
     fft          :      0.76s CPU      0.79s WALL (     152 calls)
     ffts         :      0.09s CPU      0.09s WALL (      17 calls)
     fftw         :      3.28s CPU      3.32s WALL (    1493 calls)

     Parallel routines

     PWSCF        :     10.65s CPU     10.87s WALL


   This run was terminated on:   6: 4:36  24May2021            

=------------------------------------------------------------------------------=
   JOB DONE.
=------------------------------------------------------------------------------=
