
     Program PWSCF v.6.7GPU starts on 24May2021 at  6: 6:45 

     This program is part of the open-source Quantum ESPRESSO suite
     for quantum simulation of materials; please cite
         "P. Giannozzi et al., J. Phys.:Condens. Matter 21 395502 (2009);
         "P. Giannozzi et al., J. Phys.:Condens. Matter 29 465901 (2017);
         "P. Giannozzi et al., J. Chem. Phys. 152 154105 (2020);
          URL http://www.quantum-espresso.org", 
     in publications or presentations arising from this work. More details at
     http://www.quantum-espresso.org/quote

     Parallel version (MPI), running on     4 processors

     MPI processes distributed on     1 nodes
     R & G space division:  proc/nbgrp/npool/nimage =       4
     Waiting for input...
     Reading input from standard input
     Message from routine read_cards :
     DEPRECATED: no units specified in CELL_PARAMETERS card

     Current dimensions of program PWSCF are:
     Max number of different atomic species (ntypx) = 10
     Max number of k-points (npk) =  40000
     Max angular momentum in pseudopotentials (lmaxx) =  3

     gamma-point specific algorithms are used

     Subspace diagonalization in iterative solution of the eigenvalue problem:
     one sub-group per band group will be used
     scalapack distributed-memory algorithm (size of sub-group:  2*  2 procs)


     Parallelization info
     --------------------
     sticks:   dense  smooth     PW     G-vecs:    dense   smooth      PW
     Min        1910    1910    473               125614   125614   15665
     Max        1912    1912    476               125624   125624   15668
     Sum        7645    7645   1901               502479   502479   62669

     Using Slab Decomposition



     bravais-lattice index     =            0
     lattice parameter (alat)  =      20.0000  a.u.
     unit-cell volume          =    8000.0000 (a.u.)^3
     number of atoms/cell      =           15
     number of atomic types    =            3
     number of electrons       =        50.00
     number of Kohn-Sham states=           25
     kinetic-energy cutoff     =      60.0000  Ry
     charge density cutoff     =     240.0000  Ry
     scf convergence threshold =      1.0E-12
     mixing beta               =       0.5000
     number of iterations used =            8  plain     mixing
     Exchange-correlation= PBE
                           (   1   4   3   4   0   0   0)

     celldm(1)=  20.000000  celldm(2)=   0.000000  celldm(3)=   0.000000
     celldm(4)=   0.000000  celldm(5)=   0.000000  celldm(6)=   0.000000

     crystal axes: (cart. coord. in units of alat)
               a(1) = (   1.000000   0.000000   0.000000 )  
               a(2) = (   0.000000   1.000000   0.000000 )  
               a(3) = (   0.000000   0.000000   1.000000 )  

     reciprocal axes: (cart. coord. in units 2 pi/alat)
               b(1) = (  1.000000  0.000000  0.000000 )  
               b(2) = (  0.000000  1.000000  0.000000 )  
               b(3) = (  0.000000  0.000000  1.000000 )  


     PseudoPot. # 1 for C  read from file:
     /home/ciga/builds/pseudo_potentials/C.upf
     MD5 check sum: d80ec9912146af6c4c1760317d1f95e9
     Pseudo is Norm-conserving + core correction, Zval =  4.0
     Generated using ONCVPSP code by D. R. Hamann
     Using radial grid of 1248 points,  4 beta functions with: 
                l(1) =   0
                l(2) =   0
                l(3) =   1
                l(4) =   1

     PseudoPot. # 2 for N  read from file:
     /home/ciga/builds/pseudo_potentials/N.upf
     MD5 check sum: ff7f9f91e4136e6855b4906c31c1cc72
     Pseudo is Norm-conserving + core correction, Zval =  5.0
     Generated using ONCVPSP code by D. R. Hamann
     Using radial grid of 1058 points,  4 beta functions with: 
                l(1) =   0
                l(2) =   0
                l(3) =   1
                l(4) =   1

     PseudoPot. # 3 for H  read from file:
     /home/ciga/builds/pseudo_potentials/H.upf
     MD5 check sum: 418cee52d0c413ae40802e6cc37ab9e3
     Pseudo is Norm-conserving, Zval =  1.0
     Generated using ONCVPSP code by D. R. Hamann
     Using radial grid of 1166 points,  3 beta functions with: 
                l(1) =   0
                l(2) =   0
                l(3) =   1

     atomic species   valence    mass     pseudopotential
        C              4.00    12.01070     C ( 1.00)
        N              5.00    14.00670     N ( 1.00)
        H              1.00     1.00794     H ( 1.00)

     No symmetry found



   Cartesian axes

     site n.     atom                  positions (alat units)
         1           C   tau(   1) = (  -0.0741099   0.0002330   0.0647698  )
         2           C   tau(   2) = (   0.0500950   0.0000866   0.0184432  )
         3           N   tau(   3) = (  -0.1808281   0.0002134  -0.0031627  )
         4           C   tau(   4) = (  -0.1557050  -0.0001826  -0.1272922  )
         5           H   tau(   5) = (  -0.2378211  -0.0004244  -0.1898725  )
         6           N   tau(   6) = (  -0.0428977  -0.0004839  -0.1857395  )
         7           C   tau(   7) = (   0.0625288  -0.0000912  -0.1144027  )
         8           N   tau(   8) = (   0.1765595   0.0017172  -0.1725929  )
         9           H   tau(   9) = (   0.2563546  -0.0075747  -0.1209602  )
        10           H   tau(  10) = (   0.1796318  -0.0076848  -0.2676313  )
        11           N   tau(  11) = (   0.1375435  -0.0002684   0.1157901  )
        12           H   tau(  12) = (   0.1040909  -0.0004357   0.3147743  )
        13           C   tau(  13) = (   0.0677811  -0.0002200   0.2187915  )
        14           N   tau(  14) = (  -0.0602855   0.0001159   0.1943816  )
        15           H   tau(  15) = (  -0.1316315   0.0002109   0.2582171  )

     number of k points=     1
                       cart. coord. in units 2pi/alat
        k(    1) = (   0.0000000   0.0000000   0.0000000), wk =   2.0000000

     Dense  grid:   251240 G-vectors     FFT dimensions: ( 100, 100, 100)

     Estimated max dynamical RAM per process >      75.76 MB

     Estimated total dynamical RAM >     303.04 MB

     Initial potential from superposition of free atoms

     starting charge   49.99969, renormalised to   50.00000

     negative rho (up, down):  5.164E-04 0.000E+00
     Starting wfcs are   45 randomized atomic wfcs

     total cpu time spent up to now is        1.6 secs

     Self-consistent Calculation

     iteration #  1     ecut=    60.00 Ry     beta= 0.50
     Davidson diagonalization with overlap
     ethr =  1.00E-02,  avg # of iterations =  2.0

     negative rho (up, down):  2.074E-04 0.000E+00

     total cpu time spent up to now is        3.6 secs

     total energy              =    -169.46244454 Ry
     estimated scf accuracy    <       1.66529682 Ry

     iteration #  2     ecut=    60.00 Ry     beta= 0.50
     Davidson diagonalization with overlap
     ethr =  3.33E-03,  avg # of iterations =  2.0

     negative rho (up, down):  7.614E-05 0.000E+00

     total cpu time spent up to now is        5.4 secs

     total energy              =    -169.76051497 Ry
     estimated scf accuracy    <       0.12408387 Ry

     iteration #  3     ecut=    60.00 Ry     beta= 0.50
     Davidson diagonalization with overlap
     ethr =  2.48E-04,  avg # of iterations =  2.0

     negative rho (up, down):  8.187E-06 0.000E+00

     total cpu time spent up to now is        7.1 secs

     total energy              =    -169.76539727 Ry
     estimated scf accuracy    <       0.02869912 Ry

     iteration #  4     ecut=    60.00 Ry     beta= 0.50
     Davidson diagonalization with overlap
     ethr =  5.74E-05,  avg # of iterations =  2.0

     negative rho (up, down):  1.421E-06 0.000E+00

     total cpu time spent up to now is        9.0 secs

     total energy              =    -169.77022533 Ry
     estimated scf accuracy    <       0.00364834 Ry

     iteration #  5     ecut=    60.00 Ry     beta= 0.50
     Davidson diagonalization with overlap
     ethr =  7.30E-06,  avg # of iterations =  2.0

     negative rho (up, down):  6.135E-08 0.000E+00

     total cpu time spent up to now is       10.7 secs

     total energy              =    -169.77060429 Ry
     estimated scf accuracy    <       0.00029370 Ry

     iteration #  6     ecut=    60.00 Ry     beta= 0.50
     Davidson diagonalization with overlap
     ethr =  5.87E-07,  avg # of iterations =  5.0

     total cpu time spent up to now is       13.3 secs

     total energy              =    -169.77068135 Ry
     estimated scf accuracy    <       0.00044659 Ry

     iteration #  7     ecut=    60.00 Ry     beta= 0.50
     Davidson diagonalization with overlap
     ethr =  5.87E-07,  avg # of iterations =  3.0

     total cpu time spent up to now is       15.3 secs

     total energy              =    -169.77077388 Ry
     estimated scf accuracy    <       0.00000746 Ry

     iteration #  8     ecut=    60.00 Ry     beta= 0.50
     Davidson diagonalization with overlap
     ethr =  1.49E-08,  avg # of iterations =  7.0

     total cpu time spent up to now is       18.1 secs

     total energy              =    -169.77077649 Ry
     estimated scf accuracy    <       0.00001850 Ry

     iteration #  9     ecut=    60.00 Ry     beta= 0.50
     Davidson diagonalization with overlap
     ethr =  1.49E-08,  avg # of iterations =  3.0

     total cpu time spent up to now is       20.2 secs

     total energy              =    -169.77077916 Ry
     estimated scf accuracy    <       0.00000073 Ry

     iteration # 10     ecut=    60.00 Ry     beta= 0.50
     Davidson diagonalization with overlap
     ethr =  1.46E-09,  avg # of iterations =  6.0

     total cpu time spent up to now is       22.4 secs

     total energy              =    -169.77077947 Ry
     estimated scf accuracy    <       0.00000010 Ry

     iteration # 11     ecut=    60.00 Ry     beta= 0.50
     Davidson diagonalization with overlap
     ethr =  1.92E-10,  avg # of iterations =  6.0

     total cpu time spent up to now is       24.5 secs

     total energy              =    -169.77077950 Ry
     estimated scf accuracy    <       0.00000001 Ry

     iteration # 12     ecut=    60.00 Ry     beta= 0.50
     Davidson diagonalization with overlap
     ethr =  2.73E-11,  avg # of iterations =  5.0

     total cpu time spent up to now is       26.5 secs

     total energy              =    -169.77077950 Ry
     estimated scf accuracy    <          8.9E-09 Ry

     iteration # 13     ecut=    60.00 Ry     beta= 0.50
     Davidson diagonalization with overlap
     ethr =  1.78E-11,  avg # of iterations =  5.0

     total cpu time spent up to now is       28.3 secs

     total energy              =    -169.77077950 Ry
     estimated scf accuracy    <          4.8E-10 Ry

     iteration # 14     ecut=    60.00 Ry     beta= 0.50
     Davidson diagonalization with overlap
     ethr =  9.68E-13,  avg # of iterations =  6.0

     total cpu time spent up to now is       30.7 secs

     total energy              =    -169.77077950 Ry
     estimated scf accuracy    <          1.1E-09 Ry

     iteration # 15     ecut=    60.00 Ry     beta= 0.50
     Davidson diagonalization with overlap
     ethr =  9.68E-13,  avg # of iterations =  5.0

     total cpu time spent up to now is       32.8 secs

     total energy              =    -169.77077950 Ry
     estimated scf accuracy    <          5.9E-11 Ry

     iteration # 16     ecut=    60.00 Ry     beta= 0.50
     Davidson diagonalization with overlap
     ethr =  1.18E-13,  avg # of iterations =  6.0

     total cpu time spent up to now is       35.3 secs

     total energy              =    -169.77077950 Ry
     estimated scf accuracy    <          1.2E-10 Ry

     iteration # 17     ecut=    60.00 Ry     beta= 0.50
     Davidson diagonalization with overlap
     ethr =  1.18E-13,  avg # of iterations =  3.0

     total cpu time spent up to now is       37.1 secs

     total energy              =    -169.77077950 Ry
     estimated scf accuracy    <          1.3E-11 Ry

     iteration # 18     ecut=    60.00 Ry     beta= 0.50
     Davidson diagonalization with overlap
     ethr =  1.00E-13,  avg # of iterations =  5.0

     total cpu time spent up to now is       38.8 secs

     total energy              =    -169.77077950 Ry
     estimated scf accuracy    <          3.2E-12 Ry

     iteration # 19     ecut=    60.00 Ry     beta= 0.50
     Davidson diagonalization with overlap
     ethr =  1.00E-13,  avg # of iterations =  1.0

     total cpu time spent up to now is       40.1 secs

     End of self-consistent calculation

          k = 0.0000 0.0000 0.0000 ( 31335 PWs)   bands (ev):

   -25.1869 -23.6945 -22.6158 -21.3856 -20.6036 -18.1815 -15.7874 -15.3591
   -14.8180 -13.6591 -12.9201 -11.9283 -11.5652 -10.7345 -10.4364  -9.9956
    -9.4047  -9.1610  -8.0327  -6.6840  -6.4550  -5.8702  -5.8638  -5.0205
    -4.7054

     highest occupied level (ev):    -4.7054

!    total energy              =    -169.77077950 Ry
     estimated scf accuracy    <          8.6E-13 Ry

     The total energy is the sum of the following terms:
     one-electron contribution =    -590.14962582 Ry
     hartree contribution      =     302.40658235 Ry
     xc contribution           =     -55.38059911 Ry
     ewald contribution        =     173.35286308 Ry

     convergence has been achieved in  19 iterations

     Forces acting on atoms (cartesian axes, Ry/au):

     atom    1 type  1   force =     0.00268360    0.00000576    0.00341428
     atom    2 type  1   force =     0.00022216   -0.00007547   -0.00199280
     atom    3 type  2   force =    -0.00054173    0.00003822   -0.00072571
     atom    4 type  1   force =    -0.00285823   -0.00006762   -0.00161943
     atom    5 type  3   force =     0.00017882    0.00000522    0.00023667
     atom    6 type  2   force =    -0.00066146    0.00000567   -0.00107263
     atom    7 type  1   force =     0.00292934    0.00033572    0.00149492
     atom    8 type  2   force =     0.00264121   -0.00145258   -0.00174567
     atom    9 type  3   force =    -0.00220151    0.00065785   -0.00151164
     atom   10 type  3   force =     0.00011158    0.00051406    0.00400863
     atom   11 type  2   force =    -0.00012322   -0.00000381   -0.00299145
     atom   12 type  3   force =    -0.00058919    0.00003303   -0.00062661
     atom   13 type  1   force =    -0.00025248   -0.00001168    0.00322225
     atom   14 type  2   force =    -0.00355805    0.00001472    0.00127708
     atom   15 type  3   force =     0.00201917    0.00000092   -0.00136790

     Total force =     0.011115     Total SCF correction =     0.000002

     Writing output data file ./Adenine.save/

     init_run     :      1.45s CPU      1.51s WALL (       1 calls)
     electrons    :     37.91s CPU     38.51s WALL (       1 calls)
     forces       :      0.91s CPU      0.94s WALL (       1 calls)

     Called by init_run:
     wfcinit      :      0.78s CPU      0.80s WALL (       1 calls)
     potinit      :      0.39s CPU      0.42s WALL (       1 calls)
     hinit0       :      0.19s CPU      0.20s WALL (       1 calls)

     Called by electrons:
     c_bands      :     28.49s CPU     28.68s WALL (      19 calls)
     sum_band     :      3.86s CPU      3.90s WALL (      19 calls)
     v_of_rho     :      4.28s CPU      4.63s WALL (      20 calls)
     mix_rho      :      1.34s CPU      1.36s WALL (      19 calls)

     Called by c_bands:
     init_us_2    :      0.27s CPU      0.27s WALL (      39 calls)
     regterg      :     28.13s CPU     28.33s WALL (      19 calls)

     Called by *egterg:
     rdiaghg      :      0.13s CPU      0.13s WALL (      95 calls)
     h_psi        :     22.02s CPU     22.18s WALL (      96 calls)
     g_psi        :      0.06s CPU      0.06s WALL (      76 calls)

     Called by h_psi:
     h_psi:calbec :      3.68s CPU      3.70s WALL (      96 calls)
     vloc_psi     :     15.24s CPU     15.38s WALL (      96 calls)
     add_vuspsi   :      2.97s CPU      2.98s WALL (      96 calls)

     General routines
     calbec       :      3.92s CPU      3.94s WALL (     100 calls)
     fft          :      2.98s CPU      3.03s WALL (     168 calls)
     ffts         :      0.31s CPU      0.31s WALL (      19 calls)
     fftw         :     14.06s CPU     14.18s WALL (    1859 calls)

     Parallel routines

     PWSCF        :     40.39s CPU     41.11s WALL


   This run was terminated on:   6: 7:27  24May2021            

=------------------------------------------------------------------------------=
   JOB DONE.
=------------------------------------------------------------------------------=
