
     Program PWSCF v.6.7GPU starts on 24May2021 at  6: 6:11 

     This program is part of the open-source Quantum ESPRESSO suite
     for quantum simulation of materials; please cite
         "P. Giannozzi et al., J. Phys.:Condens. Matter 21 395502 (2009);
         "P. Giannozzi et al., J. Phys.:Condens. Matter 29 465901 (2017);
         "P. Giannozzi et al., J. Chem. Phys. 152 154105 (2020);
          URL http://www.quantum-espresso.org", 
     in publications or presentations arising from this work. More details at
     http://www.quantum-espresso.org/quote

     Parallel version (MPI), running on     4 processors

     MPI processes distributed on     1 nodes
     R & G space division:  proc/nbgrp/npool/nimage =       4
     Waiting for input...
     Reading input from standard input
     Message from routine read_cards :
     DEPRECATED: no units specified in CELL_PARAMETERS card

     Current dimensions of program PWSCF are:
     Max number of different atomic species (ntypx) = 10
     Max number of k-points (npk) =  40000
     Max angular momentum in pseudopotentials (lmaxx) =  3

     gamma-point specific algorithms are used

     Subspace diagonalization in iterative solution of the eigenvalue problem:
     one sub-group per band group will be used
     scalapack distributed-memory algorithm (size of sub-group:  2*  2 procs)


     Parallelization info
     --------------------
     sticks:   dense  smooth     PW     G-vecs:    dense   smooth      PW
     Min        1753    1753    438               110351   110351   13793
     Max        1756    1756    440               110356   110356   13796
     Sum        7017    7017   1757               441415   441415   55179

     Using Slab Decomposition



     bravais-lattice index     =            0
     lattice parameter (alat)  =      20.0000  a.u.
     unit-cell volume          =    8000.0000 (a.u.)^3
     number of atoms/cell      =           15
     number of atomic types    =            3
     number of electrons       =        50.00
     number of Kohn-Sham states=           25
     kinetic-energy cutoff     =      55.0000  Ry
     charge density cutoff     =     220.0000  Ry
     scf convergence threshold =      1.0E-12
     mixing beta               =       0.5000
     number of iterations used =            8  plain     mixing
     Exchange-correlation= PBE
                           (   1   4   3   4   0   0   0)

     celldm(1)=  20.000000  celldm(2)=   0.000000  celldm(3)=   0.000000
     celldm(4)=   0.000000  celldm(5)=   0.000000  celldm(6)=   0.000000

     crystal axes: (cart. coord. in units of alat)
               a(1) = (   1.000000   0.000000   0.000000 )  
               a(2) = (   0.000000   1.000000   0.000000 )  
               a(3) = (   0.000000   0.000000   1.000000 )  

     reciprocal axes: (cart. coord. in units 2 pi/alat)
               b(1) = (  1.000000  0.000000  0.000000 )  
               b(2) = (  0.000000  1.000000  0.000000 )  
               b(3) = (  0.000000  0.000000  1.000000 )  


     PseudoPot. # 1 for C  read from file:
     /home/ciga/builds/pseudo_potentials/C.upf
     MD5 check sum: d80ec9912146af6c4c1760317d1f95e9
     Pseudo is Norm-conserving + core correction, Zval =  4.0
     Generated using ONCVPSP code by D. R. Hamann
     Using radial grid of 1248 points,  4 beta functions with: 
                l(1) =   0
                l(2) =   0
                l(3) =   1
                l(4) =   1

     PseudoPot. # 2 for N  read from file:
     /home/ciga/builds/pseudo_potentials/N.upf
     MD5 check sum: ff7f9f91e4136e6855b4906c31c1cc72
     Pseudo is Norm-conserving + core correction, Zval =  5.0
     Generated using ONCVPSP code by D. R. Hamann
     Using radial grid of 1058 points,  4 beta functions with: 
                l(1) =   0
                l(2) =   0
                l(3) =   1
                l(4) =   1

     PseudoPot. # 3 for H  read from file:
     /home/ciga/builds/pseudo_potentials/H.upf
     MD5 check sum: 418cee52d0c413ae40802e6cc37ab9e3
     Pseudo is Norm-conserving, Zval =  1.0
     Generated using ONCVPSP code by D. R. Hamann
     Using radial grid of 1166 points,  3 beta functions with: 
                l(1) =   0
                l(2) =   0
                l(3) =   1

     atomic species   valence    mass     pseudopotential
        C              4.00    12.01070     C ( 1.00)
        N              5.00    14.00670     N ( 1.00)
        H              1.00     1.00794     H ( 1.00)

     No symmetry found



   Cartesian axes

     site n.     atom                  positions (alat units)
         1           C   tau(   1) = (  -0.0741099   0.0002330   0.0647698  )
         2           C   tau(   2) = (   0.0500950   0.0000866   0.0184432  )
         3           N   tau(   3) = (  -0.1808281   0.0002134  -0.0031627  )
         4           C   tau(   4) = (  -0.1557050  -0.0001826  -0.1272922  )
         5           H   tau(   5) = (  -0.2378211  -0.0004244  -0.1898725  )
         6           N   tau(   6) = (  -0.0428977  -0.0004839  -0.1857395  )
         7           C   tau(   7) = (   0.0625288  -0.0000912  -0.1144027  )
         8           N   tau(   8) = (   0.1765595   0.0017172  -0.1725929  )
         9           H   tau(   9) = (   0.2563546  -0.0075747  -0.1209602  )
        10           H   tau(  10) = (   0.1796318  -0.0076848  -0.2676313  )
        11           N   tau(  11) = (   0.1375435  -0.0002684   0.1157901  )
        12           H   tau(  12) = (   0.1040909  -0.0004357   0.3147743  )
        13           C   tau(  13) = (   0.0677811  -0.0002200   0.2187915  )
        14           N   tau(  14) = (  -0.0602855   0.0001159   0.1943816  )
        15           H   tau(  15) = (  -0.1316315   0.0002109   0.2582171  )

     number of k points=     1
                       cart. coord. in units 2pi/alat
        k(    1) = (   0.0000000   0.0000000   0.0000000), wk =   2.0000000

     Dense  grid:   220708 G-vectors     FFT dimensions: (  96,  96,  96)

     Estimated max dynamical RAM per process >      66.73 MB

     Estimated total dynamical RAM >     266.91 MB

     Initial potential from superposition of free atoms

     starting charge   49.99969, renormalised to   50.00000

     negative rho (up, down):  3.997E-04 0.000E+00
     Starting wfcs are   45 randomized atomic wfcs

     total cpu time spent up to now is        1.4 secs

     Self-consistent Calculation

     iteration #  1     ecut=    55.00 Ry     beta= 0.50
     Davidson diagonalization with overlap
     ethr =  1.00E-02,  avg # of iterations =  2.0

     negative rho (up, down):  1.487E-04 0.000E+00

     total cpu time spent up to now is        3.1 secs

     total energy              =    -169.41802735 Ry
     estimated scf accuracy    <       1.64836208 Ry

     iteration #  2     ecut=    55.00 Ry     beta= 0.50
     Davidson diagonalization with overlap
     ethr =  3.30E-03,  avg # of iterations =  2.0

     negative rho (up, down):  4.880E-05 0.000E+00

     total cpu time spent up to now is        4.7 secs

     total energy              =    -169.71179967 Ry
     estimated scf accuracy    <       0.12394434 Ry

     iteration #  3     ecut=    55.00 Ry     beta= 0.50
     Davidson diagonalization with overlap
     ethr =  2.48E-04,  avg # of iterations =  2.0

     negative rho (up, down):  3.115E-06 0.000E+00

     total cpu time spent up to now is        6.2 secs

     total energy              =    -169.71666393 Ry
     estimated scf accuracy    <       0.02835712 Ry

     iteration #  4     ecut=    55.00 Ry     beta= 0.50
     Davidson diagonalization with overlap
     ethr =  5.67E-05,  avg # of iterations =  2.0

     negative rho (up, down):  2.250E-07 0.000E+00

     total cpu time spent up to now is        7.8 secs

     total energy              =    -169.72139683 Ry
     estimated scf accuracy    <       0.00359335 Ry

     iteration #  5     ecut=    55.00 Ry     beta= 0.50
     Davidson diagonalization with overlap
     ethr =  7.19E-06,  avg # of iterations =  2.0

     total cpu time spent up to now is        9.3 secs

     total energy              =    -169.72177463 Ry
     estimated scf accuracy    <       0.00028409 Ry

     iteration #  6     ecut=    55.00 Ry     beta= 0.50
     Davidson diagonalization with overlap
     ethr =  5.68E-07,  avg # of iterations =  5.0

     total cpu time spent up to now is       11.5 secs

     total energy              =    -169.72184639 Ry
     estimated scf accuracy    <       0.00044845 Ry

     iteration #  7     ecut=    55.00 Ry     beta= 0.50
     Davidson diagonalization with overlap
     ethr =  5.68E-07,  avg # of iterations =  3.0

     total cpu time spent up to now is       13.3 secs

     total energy              =    -169.72193910 Ry
     estimated scf accuracy    <       0.00000734 Ry

     iteration #  8     ecut=    55.00 Ry     beta= 0.50
     Davidson diagonalization with overlap
     ethr =  1.47E-08,  avg # of iterations =  7.0

     total cpu time spent up to now is       15.8 secs

     total energy              =    -169.72194205 Ry
     estimated scf accuracy    <       0.00001625 Ry

     iteration #  9     ecut=    55.00 Ry     beta= 0.50
     Davidson diagonalization with overlap
     ethr =  1.47E-08,  avg # of iterations =  4.0

     total cpu time spent up to now is       17.6 secs

     total energy              =    -169.72194458 Ry
     estimated scf accuracy    <       0.00000048 Ry

     iteration # 10     ecut=    55.00 Ry     beta= 0.50
     Davidson diagonalization with overlap
     ethr =  9.54E-10,  avg # of iterations =  6.0

     total cpu time spent up to now is       19.5 secs

     total energy              =    -169.72194474 Ry
     estimated scf accuracy    <       0.00000006 Ry

     iteration # 11     ecut=    55.00 Ry     beta= 0.50
     Davidson diagonalization with overlap
     ethr =  1.15E-10,  avg # of iterations =  6.0

     total cpu time spent up to now is       21.3 secs

     total energy              =    -169.72194476 Ry
     estimated scf accuracy    <       0.00000001 Ry

     iteration # 12     ecut=    55.00 Ry     beta= 0.50
     Davidson diagonalization with overlap
     ethr =  2.28E-11,  avg # of iterations =  5.0

     total cpu time spent up to now is       23.0 secs

     total energy              =    -169.72194476 Ry
     estimated scf accuracy    <          3.1E-09 Ry

     iteration # 13     ecut=    55.00 Ry     beta= 0.50
     Davidson diagonalization with overlap
     ethr =  6.28E-12,  avg # of iterations =  5.0

     total cpu time spent up to now is       24.6 secs

     total energy              =    -169.72194476 Ry
     estimated scf accuracy    <          1.2E-09 Ry

     iteration # 14     ecut=    55.00 Ry     beta= 0.50
     Davidson diagonalization with overlap
     ethr =  2.39E-12,  avg # of iterations =  3.0

     total cpu time spent up to now is       26.2 secs

     total energy              =    -169.72194476 Ry
     estimated scf accuracy    <          9.5E-11 Ry

     iteration # 15     ecut=    55.00 Ry     beta= 0.50
     Davidson diagonalization with overlap
     ethr =  1.91E-13,  avg # of iterations =  5.0

     total cpu time spent up to now is       28.3 secs

     total energy              =    -169.72194476 Ry
     estimated scf accuracy    <          1.3E-10 Ry

     iteration # 16     ecut=    55.00 Ry     beta= 0.50
     Davidson diagonalization with overlap
     ethr =  1.91E-13,  avg # of iterations =  3.0

     total cpu time spent up to now is       29.8 secs

     total energy              =    -169.72194476 Ry
     estimated scf accuracy    <          1.5E-11 Ry

     iteration # 17     ecut=    55.00 Ry     beta= 0.50
     Davidson diagonalization with overlap
     ethr =  1.00E-13,  avg # of iterations =  4.0

     total cpu time spent up to now is       31.5 secs

     total energy              =    -169.72194476 Ry
     estimated scf accuracy    <          9.3E-12 Ry

     iteration # 18     ecut=    55.00 Ry     beta= 0.50
     Davidson diagonalization with overlap
     ethr =  1.00E-13,  avg # of iterations =  1.0

     total cpu time spent up to now is       32.7 secs

     total energy              =    -169.72194476 Ry
     estimated scf accuracy    <          1.6E-12 Ry

     iteration # 19     ecut=    55.00 Ry     beta= 0.50
     Davidson diagonalization with overlap
     ethr =  1.00E-13,  avg # of iterations =  1.0

     total cpu time spent up to now is       33.9 secs

     End of self-consistent calculation

          k = 0.0000 0.0000 0.0000 ( 27590 PWs)   bands (ev):

   -25.1986 -23.7064 -22.6277 -21.3972 -20.6148 -18.1901 -15.7940 -15.3648
   -14.8237 -13.6633 -12.9233 -11.9308 -11.5676 -10.7356 -10.4368  -9.9974
    -9.4040  -9.1618  -8.0327  -6.6873  -6.4541  -5.8704  -5.8639  -5.0210
    -4.7030

     highest occupied level (ev):    -4.7030

!    total energy              =    -169.72194476 Ry
     estimated scf accuracy    <          1.7E-13 Ry

     The total energy is the sum of the following terms:
     one-electron contribution =    -590.06185572 Ry
     hartree contribution      =     302.34865800 Ry
     xc contribution           =     -55.36161041 Ry
     ewald contribution        =     173.35286337 Ry

     convergence has been achieved in  19 iterations

     Forces acting on atoms (cartesian axes, Ry/au):

     atom    1 type  1   force =     0.00398706    0.00001279    0.00334298
     atom    2 type  1   force =    -0.00000171   -0.00005840   -0.00237320
     atom    3 type  2   force =    -0.00510119    0.00006040    0.00077789
     atom    4 type  1   force =    -0.00447138   -0.00007642   -0.00278296
     atom    5 type  3   force =     0.00013566    0.00000529    0.00021156
     atom    6 type  2   force =    -0.00017155    0.00000030   -0.00458224
     atom    7 type  1   force =     0.00344319    0.00031066    0.00282694
     atom    8 type  2   force =     0.00549658   -0.00150123   -0.00345150
     atom    9 type  3   force =    -0.00270242    0.00069579   -0.00174513
     atom   10 type  3   force =     0.00002306    0.00053205    0.00450256
     atom   11 type  2   force =     0.00265126   -0.00001475   -0.00395446
     atom   12 type  3   force =    -0.00060545    0.00003291   -0.00063681
     atom   13 type  1   force =    -0.00004776   -0.00001675    0.00605232
     atom   14 type  2   force =    -0.00510607    0.00001786    0.00360062
     atom   15 type  3   force =     0.00247071   -0.00000050   -0.00178858

     Total force =     0.017672     Total SCF correction =     0.000001

     Writing output data file ./Adenine.save/

     init_run     :      1.27s CPU      1.33s WALL (       1 calls)
     electrons    :     32.07s CPU     32.50s WALL (       1 calls)
     forces       :      0.81s CPU      0.84s WALL (       1 calls)

     Called by init_run:
     wfcinit      :      0.67s CPU      0.69s WALL (       1 calls)
     potinit      :      0.35s CPU      0.39s WALL (       1 calls)
     hinit0       :      0.18s CPU      0.18s WALL (       1 calls)

     Called by electrons:
     c_bands      :     23.60s CPU     23.77s WALL (      19 calls)
     sum_band     :      3.43s CPU      3.46s WALL (      19 calls)
     v_of_rho     :      3.95s CPU      4.18s WALL (      20 calls)
     mix_rho      :      1.14s CPU      1.15s WALL (      19 calls)

     Called by c_bands:
     init_us_2    :      0.23s CPU      0.24s WALL (      39 calls)
     regterg      :     23.29s CPU     23.46s WALL (      19 calls)

     Called by *egterg:
     rdiaghg      :      0.12s CPU      0.12s WALL (      87 calls)
     h_psi        :     18.47s CPU     18.62s WALL (      88 calls)
     g_psi        :      0.05s CPU      0.05s WALL (      68 calls)

     Called by h_psi:
     h_psi:calbec :      3.11s CPU      3.12s WALL (      88 calls)
     vloc_psi     :     12.76s CPU     12.89s WALL (      88 calls)
     add_vuspsi   :      2.49s CPU      2.50s WALL (      88 calls)

     General routines
     calbec       :      3.32s CPU      3.33s WALL (      92 calls)
     fft          :      2.65s CPU      2.74s WALL (     168 calls)
     ffts         :      0.30s CPU      0.30s WALL (      19 calls)
     fftw         :     11.79s CPU     11.90s WALL (    1791 calls)

     Parallel routines

     PWSCF        :     34.23s CPU     34.79s WALL


   This run was terminated on:   6: 6:45  24May2021            

=------------------------------------------------------------------------------=
   JOB DONE.
=------------------------------------------------------------------------------=
