
     Program PWSCF v.6.7GPU starts on 24May2021 at  4:55:46 

     This program is part of the open-source Quantum ESPRESSO suite
     for quantum simulation of materials; please cite
         "P. Giannozzi et al., J. Phys.:Condens. Matter 21 395502 (2009);
         "P. Giannozzi et al., J. Phys.:Condens. Matter 29 465901 (2017);
         "P. Giannozzi et al., J. Chem. Phys. 152 154105 (2020);
          URL http://www.quantum-espresso.org", 
     in publications or presentations arising from this work. More details at
     http://www.quantum-espresso.org/quote

     Parallel version (MPI), running on     4 processors

     MPI processes distributed on     1 nodes
     R & G space division:  proc/nbgrp/npool/nimage =       4
     Waiting for input...
     Reading input from standard input
     Message from routine read_cards :
     DEPRECATED: no units specified in CELL_PARAMETERS card

     Current dimensions of program PWSCF are:
     Max number of different atomic species (ntypx) = 10
     Max number of k-points (npk) =  40000
     Max angular momentum in pseudopotentials (lmaxx) =  3

     gamma-point specific algorithms are used

     Subspace diagonalization in iterative solution of the eigenvalue problem:
     one sub-group per band group will be used
     scalapack distributed-memory algorithm (size of sub-group:  2*  2 procs)


     Parallelization info
     --------------------
     sticks:   dense  smooth     PW     G-vecs:    dense   smooth      PW
     Min         951     951    236                44375    44375    5524
     Max         954     954    238                44382    44382    5534
     Sum        3809    3809    949               177509   177509   22119

     Using Slab Decomposition



     bravais-lattice index     =            0
     lattice parameter (alat)  =      20.0000  a.u.
     unit-cell volume          =    8000.0000 (a.u.)^3
     number of atoms/cell      =           14
     number of atomic types    =            3
     number of electrons       =        36.00
     number of Kohn-Sham states=           18
     kinetic-energy cutoff     =      30.0000  Ry
     charge density cutoff     =     120.0000  Ry
     scf convergence threshold =      1.0E-12
     mixing beta               =       0.5000
     number of iterations used =            8  plain     mixing
     Exchange-correlation= PBE
                           (   1   4   3   4   0   0   0)

     celldm(1)=  20.000000  celldm(2)=   0.000000  celldm(3)=   0.000000
     celldm(4)=   0.000000  celldm(5)=   0.000000  celldm(6)=   0.000000

     crystal axes: (cart. coord. in units of alat)
               a(1) = (   1.000000   0.000000   0.000000 )  
               a(2) = (   0.000000   1.000000   0.000000 )  
               a(3) = (   0.000000   0.000000   1.000000 )  

     reciprocal axes: (cart. coord. in units 2 pi/alat)
               b(1) = (  1.000000  0.000000  0.000000 )  
               b(2) = (  0.000000  1.000000  0.000000 )  
               b(3) = (  0.000000  0.000000  1.000000 )  


     PseudoPot. # 1 for C  read from file:
     /home/ciga/builds/pseudo_potentials/C.upf
     MD5 check sum: d80ec9912146af6c4c1760317d1f95e9
     Pseudo is Norm-conserving + core correction, Zval =  4.0
     Generated using ONCVPSP code by D. R. Hamann
     Using radial grid of 1248 points,  4 beta functions with: 
                l(1) =   0
                l(2) =   0
                l(3) =   1
                l(4) =   1

     PseudoPot. # 2 for H  read from file:
     /home/ciga/builds/pseudo_potentials/H.upf
     MD5 check sum: 418cee52d0c413ae40802e6cc37ab9e3
     Pseudo is Norm-conserving, Zval =  1.0
     Generated using ONCVPSP code by D. R. Hamann
     Using radial grid of 1166 points,  3 beta functions with: 
                l(1) =   0
                l(2) =   0
                l(3) =   1

     PseudoPot. # 3 for N  read from file:
     /home/ciga/builds/pseudo_potentials/N.upf
     MD5 check sum: ff7f9f91e4136e6855b4906c31c1cc72
     Pseudo is Norm-conserving + core correction, Zval =  5.0
     Generated using ONCVPSP code by D. R. Hamann
     Using radial grid of 1058 points,  4 beta functions with: 
                l(1) =   0
                l(2) =   0
                l(3) =   1
                l(4) =   1

     atomic species   valence    mass     pseudopotential
        C              4.00    12.01070     C ( 1.00)
        H              1.00     1.00794     H ( 1.00)
        N              5.00    14.00670     N ( 1.00)

     No symmetry found



   Cartesian axes

     site n.     atom                  positions (alat units)
         1           C   tau(   1) = (  -0.1026256  -0.0822528   0.0000000  )
         2           C   tau(   2) = (   0.0199215  -0.1300024   0.0000000  )
         3           C   tau(   3) = (   0.1225377  -0.0477496   0.0000000  )
         4           C   tau(   4) = (   0.1026255   0.0822528   0.0000000  )
         5           C   tau(   5) = (  -0.0199216   0.1299929   0.0000000  )
         6           C   tau(   6) = (  -0.1225471   0.0477402   0.0000000  )
         7           H   tau(   7) = (  -0.1826141  -0.1463074   0.0000000  )
         8           H   tau(   8) = (   0.0354305  -0.2312971   0.0000000  )
         9           H   tau(   9) = (   0.2180247  -0.0849434   0.0000000  )
        10           H   tau(  10) = (   0.1825837   0.1463451   0.0000000  )
        11           H   tau(  11) = (  -0.2180585   0.0848716   0.0000000  )
        12           N   tau(  12) = (  -0.0404875   0.2636316   0.0000000  )
        13           H   tau(  13) = (   0.0305727   0.3156470   0.0327460  )
        14           H   tau(  14) = (  -0.1253988   0.2900890   0.0315565  )

     number of k points=     1
                       cart. coord. in units 2pi/alat
        k(    1) = (   0.0000000   0.0000000   0.0000000), wk =   2.0000000

     Dense  grid:    88755 G-vectors     FFT dimensions: (  72,  72,  72)

     Estimated max dynamical RAM per process >      25.42 MB

     Estimated total dynamical RAM >     101.70 MB

     Check: negative core charge=   -0.000025

     Initial potential from superposition of free atoms

     starting charge   35.99966, renormalised to   36.00000

     negative rho (up, down):  1.788E-02 0.000E+00
     Starting wfcs are   35 randomized atomic wfcs

     total cpu time spent up to now is        0.6 secs

     Self-consistent Calculation

     iteration #  1     ecut=    30.00 Ry     beta= 0.50
     Davidson diagonalization with overlap
     ethr =  1.00E-02,  avg # of iterations =  2.0

     negative rho (up, down):  8.531E-03 0.000E+00

     total cpu time spent up to now is        1.0 secs

     total energy              =    -100.00218573 Ry
     estimated scf accuracy    <       1.32071308 Ry

     iteration #  2     ecut=    30.00 Ry     beta= 0.50
     Davidson diagonalization with overlap
     ethr =  3.67E-03,  avg # of iterations =  2.0

     negative rho (up, down):  3.458E-03 0.000E+00

     total cpu time spent up to now is        1.4 secs

     total energy              =    -100.17224335 Ry
     estimated scf accuracy    <       0.11198755 Ry

     iteration #  3     ecut=    30.00 Ry     beta= 0.50
     Davidson diagonalization with overlap
     ethr =  3.11E-04,  avg # of iterations =  2.0

     negative rho (up, down):  2.647E-04 0.000E+00

     total cpu time spent up to now is        1.8 secs

     total energy              =    -100.17222039 Ry
     estimated scf accuracy    <       0.01935321 Ry

     iteration #  4     ecut=    30.00 Ry     beta= 0.50
     Davidson diagonalization with overlap
     ethr =  5.38E-05,  avg # of iterations =  2.0

     negative rho (up, down):  4.618E-05 0.000E+00

     total cpu time spent up to now is        2.1 secs

     total energy              =    -100.17470862 Ry
     estimated scf accuracy    <       0.00099500 Ry

     iteration #  5     ecut=    30.00 Ry     beta= 0.50
     Davidson diagonalization with overlap
     ethr =  2.76E-06,  avg # of iterations =  4.0

     negative rho (up, down):  2.602E-06 0.000E+00

     total cpu time spent up to now is        2.6 secs

     total energy              =    -100.17495533 Ry
     estimated scf accuracy    <       0.00010595 Ry

     iteration #  6     ecut=    30.00 Ry     beta= 0.50
     Davidson diagonalization with overlap
     ethr =  2.94E-07,  avg # of iterations =  3.0

     total cpu time spent up to now is        3.0 secs

     total energy              =    -100.17497000 Ry
     estimated scf accuracy    <       0.00002853 Ry

     iteration #  7     ecut=    30.00 Ry     beta= 0.50
     Davidson diagonalization with overlap
     ethr =  7.92E-08,  avg # of iterations =  4.0

     total cpu time spent up to now is        3.5 secs

     total energy              =    -100.17497619 Ry
     estimated scf accuracy    <       0.00000764 Ry

     iteration #  8     ecut=    30.00 Ry     beta= 0.50
     Davidson diagonalization with overlap
     ethr =  2.12E-08,  avg # of iterations =  5.0

     total cpu time spent up to now is        3.9 secs

     total energy              =    -100.17497825 Ry
     estimated scf accuracy    <       0.00000133 Ry

     iteration #  9     ecut=    30.00 Ry     beta= 0.50
     Davidson diagonalization with overlap
     ethr =  3.69E-09,  avg # of iterations =  5.0

     total cpu time spent up to now is        4.3 secs

     total energy              =    -100.17497821 Ry
     estimated scf accuracy    <       0.00000027 Ry

     iteration # 10     ecut=    30.00 Ry     beta= 0.50
     Davidson diagonalization with overlap
     ethr =  7.45E-10,  avg # of iterations =  4.0

     total cpu time spent up to now is        4.8 secs

     total energy              =    -100.17497830 Ry
     estimated scf accuracy    <       0.00000004 Ry

     iteration # 11     ecut=    30.00 Ry     beta= 0.50
     Davidson diagonalization with overlap
     ethr =  1.25E-10,  avg # of iterations =  2.0

     total cpu time spent up to now is        5.2 secs

     total energy              =    -100.17497830 Ry
     estimated scf accuracy    <          5.1E-09 Ry

     iteration # 12     ecut=    30.00 Ry     beta= 0.50
     Davidson diagonalization with overlap
     ethr =  1.42E-11,  avg # of iterations =  6.0

     total cpu time spent up to now is        5.6 secs

     total energy              =    -100.17497831 Ry
     estimated scf accuracy    <          1.1E-09 Ry

     iteration # 13     ecut=    30.00 Ry     beta= 0.50
     Davidson diagonalization with overlap
     ethr =  2.97E-12,  avg # of iterations =  5.0

     total cpu time spent up to now is        6.0 secs

     total energy              =    -100.17497831 Ry
     estimated scf accuracy    <          1.5E-11 Ry

     iteration # 14     ecut=    30.00 Ry     beta= 0.50
     Davidson diagonalization with overlap
     ethr =  1.00E-13,  avg # of iterations =  4.0

     total cpu time spent up to now is        6.5 secs

     total energy              =    -100.17497831 Ry
     estimated scf accuracy    <          5.0E-12 Ry

     iteration # 15     ecut=    30.00 Ry     beta= 0.50
     Davidson diagonalization with overlap
     ethr =  1.00E-13,  avg # of iterations =  2.0

     total cpu time spent up to now is        6.9 secs

     total energy              =    -100.17497831 Ry
     estimated scf accuracy    <          1.4E-12 Ry

     iteration # 16     ecut=    30.00 Ry     beta= 0.50
     Davidson diagonalization with overlap
     ethr =  1.00E-13,  avg # of iterations =  1.0

     total cpu time spent up to now is        7.2 secs

     End of self-consistent calculation

          k = 0.0000 0.0000 0.0000 ( 11060 PWs)   bands (ev):

   -22.6057 -20.4734 -18.0108 -17.5937 -14.6270 -14.2289 -12.3523 -12.0295
   -10.9927  -9.8664  -9.8513  -9.5136  -8.7789  -7.8147  -7.5060  -6.8486
    -5.5704  -4.3719

     highest occupied level (ev):    -4.3719

!    total energy              =    -100.17497831 Ry
     estimated scf accuracy    <          2.8E-13 Ry

     The total energy is the sum of the following terms:
     one-electron contribution =    -346.70529242 Ry
     hartree contribution      =     178.17376869 Ry
     xc contribution           =     -36.43712535 Ry
     ewald contribution        =     104.79367078 Ry

     convergence has been achieved in  16 iterations

     Forces acting on atoms (cartesian axes, Ry/au):

     atom    1 type  1   force =     0.01399743    0.01500587   -0.00179099
     atom    2 type  1   force =     0.00093578    0.00287761    0.00002709
     atom    3 type  1   force =    -0.01944408    0.00960047   -0.00168958
     atom    4 type  1   force =     0.00150988   -0.02030121   -0.00194084
     atom    5 type  1   force =    -0.01271698    0.08299643    0.01260232
     atom    6 type  1   force =     0.00633591   -0.01999746   -0.00199719
     atom    7 type  2   force =    -0.02271920   -0.01667253    0.00015116
     atom    8 type  2   force =     0.00415657   -0.02749613    0.00014193
     atom    9 type  2   force =     0.02632243   -0.00898858    0.00017601
     atom   10 type  2   force =     0.02237928    0.01954494    0.00038783
     atom   11 type  2   force =    -0.02714194    0.01185011    0.00045656
     atom   12 type  3   force =     0.00927707   -0.11766307   -0.06703643
     atom   13 type  2   force =     0.06063220    0.04554566    0.03236911
     atom   14 type  2   force =    -0.06352435    0.02369788    0.02814303

     Total force =     0.209024     Total SCF correction =     0.000001

     Writing output data file ./Aniline.save/

     init_run     :      0.43s CPU      0.47s WALL (       1 calls)
     electrons    :      6.41s CPU      6.60s WALL (       1 calls)
     forces       :      0.32s CPU      0.32s WALL (       1 calls)

     Called by init_run:
     wfcinit      :      0.17s CPU      0.17s WALL (       1 calls)
     potinit      :      0.16s CPU      0.18s WALL (       1 calls)
     hinit0       :      0.08s CPU      0.09s WALL (       1 calls)

     Called by electrons:
     c_bands      :      4.10s CPU      4.14s WALL (      16 calls)
     sum_band     :      0.73s CPU      0.74s WALL (      16 calls)
     v_of_rho     :      1.35s CPU      1.50s WALL (      17 calls)
     mix_rho      :      0.25s CPU      0.26s WALL (      16 calls)

     Called by c_bands:
     init_us_2    :      0.07s CPU      0.07s WALL (      33 calls)
     regterg      :      4.00s CPU      4.04s WALL (      16 calls)

     Called by *egterg:
     rdiaghg      :      0.06s CPU      0.06s WALL (      69 calls)
     h_psi        :      3.39s CPU      3.43s WALL (      70 calls)
     g_psi        :      0.01s CPU      0.01s WALL (      53 calls)

     Called by h_psi:
     h_psi:calbec :      0.60s CPU      0.61s WALL (      70 calls)
     vloc_psi     :      2.29s CPU      2.33s WALL (      70 calls)
     add_vuspsi   :      0.47s CPU      0.48s WALL (      70 calls)

     General routines
     calbec       :      0.66s CPU      0.66s WALL (      74 calls)
     fft          :      0.69s CPU      0.73s WALL (     144 calls)
     ffts         :      0.08s CPU      0.08s WALL (      16 calls)
     fftw         :      2.09s CPU      2.13s WALL (     992 calls)

     Parallel routines

     PWSCF        :      7.27s CPU      7.52s WALL


   This run was terminated on:   4:55:54  24May2021            

=------------------------------------------------------------------------------=
   JOB DONE.
=------------------------------------------------------------------------------=
