
     Program PWSCF v.6.7GPU starts on 24May2021 at  4:56: 4 

     This program is part of the open-source Quantum ESPRESSO suite
     for quantum simulation of materials; please cite
         "P. Giannozzi et al., J. Phys.:Condens. Matter 21 395502 (2009);
         "P. Giannozzi et al., J. Phys.:Condens. Matter 29 465901 (2017);
         "P. Giannozzi et al., J. Chem. Phys. 152 154105 (2020);
          URL http://www.quantum-espresso.org", 
     in publications or presentations arising from this work. More details at
     http://www.quantum-espresso.org/quote

     Parallel version (MPI), running on     4 processors

     MPI processes distributed on     1 nodes
     R & G space division:  proc/nbgrp/npool/nimage =       4
     Waiting for input...
     Reading input from standard input
     Message from routine read_cards :
     DEPRECATED: no units specified in CELL_PARAMETERS card

     Current dimensions of program PWSCF are:
     Max number of different atomic species (ntypx) = 10
     Max number of k-points (npk) =  40000
     Max angular momentum in pseudopotentials (lmaxx) =  3

     gamma-point specific algorithms are used

     Subspace diagonalization in iterative solution of the eigenvalue problem:
     one sub-group per band group will be used
     scalapack distributed-memory algorithm (size of sub-group:  2*  2 procs)


     Parallelization info
     --------------------
     sticks:   dense  smooth     PW     G-vecs:    dense   smooth      PW
     Min        1271    1271    317                68355    68355    8565
     Max        1276    1276    322                68358    68358    8568
     Sum        5097    5097   1281               273425   273425   34265

     Using Slab Decomposition



     bravais-lattice index     =            0
     lattice parameter (alat)  =      20.0000  a.u.
     unit-cell volume          =    8000.0000 (a.u.)^3
     number of atoms/cell      =           14
     number of atomic types    =            3
     number of electrons       =        36.00
     number of Kohn-Sham states=           18
     kinetic-energy cutoff     =      40.0000  Ry
     charge density cutoff     =     160.0000  Ry
     scf convergence threshold =      1.0E-12
     mixing beta               =       0.5000
     number of iterations used =            8  plain     mixing
     Exchange-correlation= PBE
                           (   1   4   3   4   0   0   0)

     celldm(1)=  20.000000  celldm(2)=   0.000000  celldm(3)=   0.000000
     celldm(4)=   0.000000  celldm(5)=   0.000000  celldm(6)=   0.000000

     crystal axes: (cart. coord. in units of alat)
               a(1) = (   1.000000   0.000000   0.000000 )  
               a(2) = (   0.000000   1.000000   0.000000 )  
               a(3) = (   0.000000   0.000000   1.000000 )  

     reciprocal axes: (cart. coord. in units 2 pi/alat)
               b(1) = (  1.000000  0.000000  0.000000 )  
               b(2) = (  0.000000  1.000000  0.000000 )  
               b(3) = (  0.000000  0.000000  1.000000 )  


     PseudoPot. # 1 for C  read from file:
     /home/ciga/builds/pseudo_potentials/C.upf
     MD5 check sum: d80ec9912146af6c4c1760317d1f95e9
     Pseudo is Norm-conserving + core correction, Zval =  4.0
     Generated using ONCVPSP code by D. R. Hamann
     Using radial grid of 1248 points,  4 beta functions with: 
                l(1) =   0
                l(2) =   0
                l(3) =   1
                l(4) =   1

     PseudoPot. # 2 for H  read from file:
     /home/ciga/builds/pseudo_potentials/H.upf
     MD5 check sum: 418cee52d0c413ae40802e6cc37ab9e3
     Pseudo is Norm-conserving, Zval =  1.0
     Generated using ONCVPSP code by D. R. Hamann
     Using radial grid of 1166 points,  3 beta functions with: 
                l(1) =   0
                l(2) =   0
                l(3) =   1

     PseudoPot. # 3 for N  read from file:
     /home/ciga/builds/pseudo_potentials/N.upf
     MD5 check sum: ff7f9f91e4136e6855b4906c31c1cc72
     Pseudo is Norm-conserving + core correction, Zval =  5.0
     Generated using ONCVPSP code by D. R. Hamann
     Using radial grid of 1058 points,  4 beta functions with: 
                l(1) =   0
                l(2) =   0
                l(3) =   1
                l(4) =   1

     atomic species   valence    mass     pseudopotential
        C              4.00    12.01070     C ( 1.00)
        H              1.00     1.00794     H ( 1.00)
        N              5.00    14.00670     N ( 1.00)

     No symmetry found



   Cartesian axes

     site n.     atom                  positions (alat units)
         1           C   tau(   1) = (  -0.1026256  -0.0822528   0.0000000  )
         2           C   tau(   2) = (   0.0199215  -0.1300024   0.0000000  )
         3           C   tau(   3) = (   0.1225377  -0.0477496   0.0000000  )
         4           C   tau(   4) = (   0.1026255   0.0822528   0.0000000  )
         5           C   tau(   5) = (  -0.0199216   0.1299929   0.0000000  )
         6           C   tau(   6) = (  -0.1225471   0.0477402   0.0000000  )
         7           H   tau(   7) = (  -0.1826141  -0.1463074   0.0000000  )
         8           H   tau(   8) = (   0.0354305  -0.2312971   0.0000000  )
         9           H   tau(   9) = (   0.2180247  -0.0849434   0.0000000  )
        10           H   tau(  10) = (   0.1825837   0.1463451   0.0000000  )
        11           H   tau(  11) = (  -0.2180585   0.0848716   0.0000000  )
        12           N   tau(  12) = (  -0.0404875   0.2636316   0.0000000  )
        13           H   tau(  13) = (   0.0305727   0.3156470   0.0327460  )
        14           H   tau(  14) = (  -0.1253988   0.2900890   0.0315565  )

     number of k points=     1
                       cart. coord. in units 2pi/alat
        k(    1) = (   0.0000000   0.0000000   0.0000000), wk =   2.0000000

     Dense  grid:   136713 G-vectors     FFT dimensions: (  81,  81,  81)

     Estimated max dynamical RAM per process >      38.45 MB

     Estimated total dynamical RAM >     153.79 MB

     Check: negative core charge=   -0.000004

     Initial potential from superposition of free atoms

     starting charge   35.99966, renormalised to   36.00000

     negative rho (up, down):  3.398E-03 0.000E+00
     Starting wfcs are   35 randomized atomic wfcs

     total cpu time spent up to now is        0.8 secs

     Self-consistent Calculation

     iteration #  1     ecut=    40.00 Ry     beta= 0.50
     Davidson diagonalization with overlap
     ethr =  1.00E-02,  avg # of iterations =  2.0

     negative rho (up, down):  1.577E-03 0.000E+00

     total cpu time spent up to now is        1.6 secs

     total energy              =    -100.64280746 Ry
     estimated scf accuracy    <       1.56451960 Ry

     iteration #  2     ecut=    40.00 Ry     beta= 0.50
     Davidson diagonalization with overlap
     ethr =  4.35E-03,  avg # of iterations =  2.0

     negative rho (up, down):  6.600E-04 0.000E+00

     total cpu time spent up to now is        2.3 secs

     total energy              =    -100.87418574 Ry
     estimated scf accuracy    <       0.11560015 Ry

     iteration #  3     ecut=    40.00 Ry     beta= 0.50
     Davidson diagonalization with overlap
     ethr =  3.21E-04,  avg # of iterations =  2.0

     negative rho (up, down):  5.466E-05 0.000E+00

     total cpu time spent up to now is        2.9 secs

     total energy              =    -100.87429278 Ry
     estimated scf accuracy    <       0.02165986 Ry

     iteration #  4     ecut=    40.00 Ry     beta= 0.50
     Davidson diagonalization with overlap
     ethr =  6.02E-05,  avg # of iterations =  2.0

     negative rho (up, down):  6.067E-06 0.000E+00

     total cpu time spent up to now is        3.6 secs

     total energy              =    -100.87702354 Ry
     estimated scf accuracy    <       0.00144694 Ry

     iteration #  5     ecut=    40.00 Ry     beta= 0.50
     Davidson diagonalization with overlap
     ethr =  4.02E-06,  avg # of iterations =  2.0

     negative rho (up, down):  1.462E-07 0.000E+00

     total cpu time spent up to now is        4.4 secs

     total energy              =    -100.87736841 Ry
     estimated scf accuracy    <       0.00007143 Ry

     iteration #  6     ecut=    40.00 Ry     beta= 0.50
     Davidson diagonalization with overlap
     ethr =  1.98E-07,  avg # of iterations =  5.0

     total cpu time spent up to now is        5.2 secs

     total energy              =    -100.87738308 Ry
     estimated scf accuracy    <       0.00002048 Ry

     iteration #  7     ecut=    40.00 Ry     beta= 0.50
     Davidson diagonalization with overlap
     ethr =  5.69E-08,  avg # of iterations =  4.0

     total cpu time spent up to now is        6.0 secs

     total energy              =    -100.87738794 Ry
     estimated scf accuracy    <       0.00000332 Ry

     iteration #  8     ecut=    40.00 Ry     beta= 0.50
     Davidson diagonalization with overlap
     ethr =  9.24E-09,  avg # of iterations =  2.0

     total cpu time spent up to now is        6.7 secs

     total energy              =    -100.87738707 Ry
     estimated scf accuracy    <       0.00000252 Ry

     iteration #  9     ecut=    40.00 Ry     beta= 0.50
     Davidson diagonalization with overlap
     ethr =  7.01E-09,  avg # of iterations =  4.0

     total cpu time spent up to now is        7.5 secs

     total energy              =    -100.87738780 Ry
     estimated scf accuracy    <       0.00000017 Ry

     iteration # 10     ecut=    40.00 Ry     beta= 0.50
     Davidson diagonalization with overlap
     ethr =  4.78E-10,  avg # of iterations =  2.0

     total cpu time spent up to now is        8.2 secs

     total energy              =    -100.87738782 Ry
     estimated scf accuracy    <          9.3E-09 Ry

     iteration # 11     ecut=    40.00 Ry     beta= 0.50
     Davidson diagonalization with overlap
     ethr =  2.58E-11,  avg # of iterations =  5.0

     total cpu time spent up to now is        9.0 secs

     total energy              =    -100.87738782 Ry
     estimated scf accuracy    <          1.3E-09 Ry

     iteration # 12     ecut=    40.00 Ry     beta= 0.50
     Davidson diagonalization with overlap
     ethr =  3.58E-12,  avg # of iterations =  5.0

     total cpu time spent up to now is        9.9 secs

     total energy              =    -100.87738782 Ry
     estimated scf accuracy    <          3.8E-10 Ry

     iteration # 13     ecut=    40.00 Ry     beta= 0.50
     Davidson diagonalization with overlap
     ethr =  1.05E-12,  avg # of iterations =  5.0

     total cpu time spent up to now is       10.5 secs

     total energy              =    -100.87738782 Ry
     estimated scf accuracy    <          4.3E-11 Ry

     iteration # 14     ecut=    40.00 Ry     beta= 0.50
     Davidson diagonalization with overlap
     ethr =  1.19E-13,  avg # of iterations =  2.0

     total cpu time spent up to now is       11.2 secs

     total energy              =    -100.87738782 Ry
     estimated scf accuracy    <          1.4E-11 Ry

     iteration # 15     ecut=    40.00 Ry     beta= 0.50
     Davidson diagonalization with overlap
     ethr =  1.00E-13,  avg # of iterations =  2.0

     total cpu time spent up to now is       12.0 secs

     total energy              =    -100.87738782 Ry
     estimated scf accuracy    <          1.8E-12 Ry

     iteration # 16     ecut=    40.00 Ry     beta= 0.50
     Davidson diagonalization with overlap
     ethr =  1.00E-13,  avg # of iterations =  1.0

     total cpu time spent up to now is       12.5 secs

     End of self-consistent calculation

          k = 0.0000 0.0000 0.0000 ( 17133 PWs)   bands (ev):

   -22.3054 -20.2894 -17.8641 -17.4200 -14.5140 -14.0947 -12.3055 -11.9846
   -10.9295  -9.8574  -9.8324  -9.4956  -8.7497  -7.8234  -7.5228  -6.8356
    -5.5748  -4.3848

     highest occupied level (ev):    -4.3848

!    total energy              =    -100.87738782 Ry
     estimated scf accuracy    <          3.7E-13 Ry

     The total energy is the sum of the following terms:
     one-electron contribution =    -348.08631444 Ry
     hartree contribution      =     179.05530919 Ry
     xc contribution           =     -36.64005335 Ry
     ewald contribution        =     104.79367078 Ry

     convergence has been achieved in  16 iterations

     Forces acting on atoms (cartesian axes, Ry/au):

     atom    1 type  1   force =    -0.00759879   -0.00086681   -0.00150406
     atom    2 type  1   force =     0.00393138   -0.02525427    0.00007825
     atom    3 type  1   force =     0.00772637    0.00113450   -0.00140811
     atom    4 type  1   force =     0.02248665   -0.00414440   -0.00174635
     atom    5 type  1   force =    -0.00805685    0.06411824    0.01041713
     atom    6 type  1   force =    -0.02013132   -0.01001442   -0.00182643
     atom    7 type  2   force =    -0.00625695   -0.00360398    0.00014799
     atom    8 type  2   force =     0.00099302   -0.00645934    0.00009078
     atom    9 type  2   force =     0.00705420   -0.00146471    0.00017397
     atom   10 type  2   force =     0.00632732    0.00625480    0.00029084
     atom   11 type  2   force =    -0.00787839    0.00415696    0.00035378
     atom   12 type  3   force =    -0.00143201   -0.05646008   -0.03251232
     atom   13 type  2   force =     0.02710416    0.02109348    0.01558223
     atom   14 type  2   force =    -0.02426878    0.01151003    0.01186230

     Total force =     0.113724     Total SCF correction =     0.000001

     Writing output data file ./Aniline.save/

     init_run     :      0.69s CPU      0.74s WALL (       1 calls)
     electrons    :     11.46s CPU     11.66s WALL (       1 calls)
     forces       :      0.47s CPU      0.47s WALL (       1 calls)

     Called by init_run:
     wfcinit      :      0.31s CPU      0.31s WALL (       1 calls)
     potinit      :      0.23s CPU      0.26s WALL (       1 calls)
     hinit0       :      0.12s CPU      0.12s WALL (       1 calls)

     Called by electrons:
     c_bands      :      7.46s CPU      7.52s WALL (      16 calls)
     sum_band     :      1.34s CPU      1.35s WALL (      16 calls)
     v_of_rho     :      2.23s CPU      2.37s WALL (      17 calls)
     mix_rho      :      0.48s CPU      0.48s WALL (      16 calls)

     Called by c_bands:
     init_us_2    :      0.11s CPU      0.11s WALL (      33 calls)
     regterg      :      7.32s CPU      7.38s WALL (      16 calls)

     Called by *egterg:
     rdiaghg      :      0.06s CPU      0.06s WALL (      63 calls)
     h_psi        :      6.33s CPU      6.39s WALL (      64 calls)
     g_psi        :      0.02s CPU      0.02s WALL (      47 calls)

     Called by h_psi:
     h_psi:calbec :      0.99s CPU      1.00s WALL (      64 calls)
     vloc_psi     :      4.53s CPU      4.58s WALL (      64 calls)
     add_vuspsi   :      0.77s CPU      0.77s WALL (      64 calls)

     General routines
     calbec       :      1.07s CPU      1.08s WALL (      68 calls)
     fft          :      1.38s CPU      1.41s WALL (     144 calls)
     ffts         :      0.15s CPU      0.15s WALL (      16 calls)
     fftw         :      4.28s CPU      4.32s WALL (    1010 calls)

     Parallel routines

     PWSCF        :     12.74s CPU     13.00s WALL


   This run was terminated on:   4:56:17  24May2021            

=------------------------------------------------------------------------------=
   JOB DONE.
=------------------------------------------------------------------------------=
