
     Program PWSCF v.6.7GPU starts on 24May2021 at  4:55:54 

     This program is part of the open-source Quantum ESPRESSO suite
     for quantum simulation of materials; please cite
         "P. Giannozzi et al., J. Phys.:Condens. Matter 21 395502 (2009);
         "P. Giannozzi et al., J. Phys.:Condens. Matter 29 465901 (2017);
         "P. Giannozzi et al., J. Chem. Phys. 152 154105 (2020);
          URL http://www.quantum-espresso.org", 
     in publications or presentations arising from this work. More details at
     http://www.quantum-espresso.org/quote

     Parallel version (MPI), running on     4 processors

     MPI processes distributed on     1 nodes
     R & G space division:  proc/nbgrp/npool/nimage =       4
     Waiting for input...
     Reading input from standard input
     Message from routine read_cards :
     DEPRECATED: no units specified in CELL_PARAMETERS card

     Current dimensions of program PWSCF are:
     Max number of different atomic species (ntypx) = 10
     Max number of k-points (npk) =  40000
     Max angular momentum in pseudopotentials (lmaxx) =  3

     gamma-point specific algorithms are used

     Subspace diagonalization in iterative solution of the eigenvalue problem:
     one sub-group per band group will be used
     scalapack distributed-memory algorithm (size of sub-group:  2*  2 procs)


     Parallelization info
     --------------------
     sticks:   dense  smooth     PW     G-vecs:    dense   smooth      PW
     Min        1115    1115    276                55933    55933    7000
     Max        1118    1118    278                55934    55934    7006
     Sum        4469    4469   1109               223735   223735   28017

     Using Slab Decomposition



     bravais-lattice index     =            0
     lattice parameter (alat)  =      20.0000  a.u.
     unit-cell volume          =    8000.0000 (a.u.)^3
     number of atoms/cell      =           14
     number of atomic types    =            3
     number of electrons       =        36.00
     number of Kohn-Sham states=           18
     kinetic-energy cutoff     =      35.0000  Ry
     charge density cutoff     =     140.0000  Ry
     scf convergence threshold =      1.0E-12
     mixing beta               =       0.5000
     number of iterations used =            8  plain     mixing
     Exchange-correlation= PBE
                           (   1   4   3   4   0   0   0)

     celldm(1)=  20.000000  celldm(2)=   0.000000  celldm(3)=   0.000000
     celldm(4)=   0.000000  celldm(5)=   0.000000  celldm(6)=   0.000000

     crystal axes: (cart. coord. in units of alat)
               a(1) = (   1.000000   0.000000   0.000000 )  
               a(2) = (   0.000000   1.000000   0.000000 )  
               a(3) = (   0.000000   0.000000   1.000000 )  

     reciprocal axes: (cart. coord. in units 2 pi/alat)
               b(1) = (  1.000000  0.000000  0.000000 )  
               b(2) = (  0.000000  1.000000  0.000000 )  
               b(3) = (  0.000000  0.000000  1.000000 )  


     PseudoPot. # 1 for C  read from file:
     /home/ciga/builds/pseudo_potentials/C.upf
     MD5 check sum: d80ec9912146af6c4c1760317d1f95e9
     Pseudo is Norm-conserving + core correction, Zval =  4.0
     Generated using ONCVPSP code by D. R. Hamann
     Using radial grid of 1248 points,  4 beta functions with: 
                l(1) =   0
                l(2) =   0
                l(3) =   1
                l(4) =   1

     PseudoPot. # 2 for H  read from file:
     /home/ciga/builds/pseudo_potentials/H.upf
     MD5 check sum: 418cee52d0c413ae40802e6cc37ab9e3
     Pseudo is Norm-conserving, Zval =  1.0
     Generated using ONCVPSP code by D. R. Hamann
     Using radial grid of 1166 points,  3 beta functions with: 
                l(1) =   0
                l(2) =   0
                l(3) =   1

     PseudoPot. # 3 for N  read from file:
     /home/ciga/builds/pseudo_potentials/N.upf
     MD5 check sum: ff7f9f91e4136e6855b4906c31c1cc72
     Pseudo is Norm-conserving + core correction, Zval =  5.0
     Generated using ONCVPSP code by D. R. Hamann
     Using radial grid of 1058 points,  4 beta functions with: 
                l(1) =   0
                l(2) =   0
                l(3) =   1
                l(4) =   1

     atomic species   valence    mass     pseudopotential
        C              4.00    12.01070     C ( 1.00)
        H              1.00     1.00794     H ( 1.00)
        N              5.00    14.00670     N ( 1.00)

     No symmetry found



   Cartesian axes

     site n.     atom                  positions (alat units)
         1           C   tau(   1) = (  -0.1026256  -0.0822528   0.0000000  )
         2           C   tau(   2) = (   0.0199215  -0.1300024   0.0000000  )
         3           C   tau(   3) = (   0.1225377  -0.0477496   0.0000000  )
         4           C   tau(   4) = (   0.1026255   0.0822528   0.0000000  )
         5           C   tau(   5) = (  -0.0199216   0.1299929   0.0000000  )
         6           C   tau(   6) = (  -0.1225471   0.0477402   0.0000000  )
         7           H   tau(   7) = (  -0.1826141  -0.1463074   0.0000000  )
         8           H   tau(   8) = (   0.0354305  -0.2312971   0.0000000  )
         9           H   tau(   9) = (   0.2180247  -0.0849434   0.0000000  )
        10           H   tau(  10) = (   0.1825837   0.1463451   0.0000000  )
        11           H   tau(  11) = (  -0.2180585   0.0848716   0.0000000  )
        12           N   tau(  12) = (  -0.0404875   0.2636316   0.0000000  )
        13           H   tau(  13) = (   0.0305727   0.3156470   0.0327460  )
        14           H   tau(  14) = (  -0.1253988   0.2900890   0.0315565  )

     number of k points=     1
                       cart. coord. in units 2pi/alat
        k(    1) = (   0.0000000   0.0000000   0.0000000), wk =   2.0000000

     Dense  grid:   111868 G-vectors     FFT dimensions: (  75,  75,  75)

     Estimated max dynamical RAM per process >      31.16 MB

     Estimated total dynamical RAM >     124.66 MB

     Check: negative core charge=   -0.000011

     Initial potential from superposition of free atoms

     starting charge   35.99966, renormalised to   36.00000

     negative rho (up, down):  6.956E-03 0.000E+00
     Starting wfcs are   35 randomized atomic wfcs

     total cpu time spent up to now is        0.7 secs

     Self-consistent Calculation

     iteration #  1     ecut=    35.00 Ry     beta= 0.50
     Davidson diagonalization with overlap
     ethr =  1.00E-02,  avg # of iterations =  2.0

     negative rho (up, down):  3.278E-03 0.000E+00

     total cpu time spent up to now is        1.3 secs

     total energy              =    -100.39448423 Ry
     estimated scf accuracy    <       1.46368297 Ry

     iteration #  2     ecut=    35.00 Ry     beta= 0.50
     Davidson diagonalization with overlap
     ethr =  4.07E-03,  avg # of iterations =  2.0

     negative rho (up, down):  1.357E-03 0.000E+00

     total cpu time spent up to now is        1.8 secs

     total energy              =    -100.60091096 Ry
     estimated scf accuracy    <       0.11378956 Ry

     iteration #  3     ecut=    35.00 Ry     beta= 0.50
     Davidson diagonalization with overlap
     ethr =  3.16E-04,  avg # of iterations =  2.0

     negative rho (up, down):  1.065E-04 0.000E+00

     total cpu time spent up to now is        2.3 secs

     total energy              =    -100.60081973 Ry
     estimated scf accuracy    <       0.02078685 Ry

     iteration #  4     ecut=    35.00 Ry     beta= 0.50
     Davidson diagonalization with overlap
     ethr =  5.77E-05,  avg # of iterations =  2.0

     negative rho (up, down):  1.402E-05 0.000E+00

     total cpu time spent up to now is        2.8 secs

     total energy              =    -100.60339443 Ry
     estimated scf accuracy    <       0.00121249 Ry

     iteration #  5     ecut=    35.00 Ry     beta= 0.50
     Davidson diagonalization with overlap
     ethr =  3.37E-06,  avg # of iterations =  2.0

     negative rho (up, down):  4.565E-07 0.000E+00

     total cpu time spent up to now is        3.4 secs

     total energy              =    -100.60367934 Ry
     estimated scf accuracy    <       0.00006984 Ry

     iteration #  6     ecut=    35.00 Ry     beta= 0.50
     Davidson diagonalization with overlap
     ethr =  1.94E-07,  avg # of iterations =  5.0

     total cpu time spent up to now is        4.0 secs

     total energy              =    -100.60369401 Ry
     estimated scf accuracy    <       0.00002998 Ry

     iteration #  7     ecut=    35.00 Ry     beta= 0.50
     Davidson diagonalization with overlap
     ethr =  8.33E-08,  avg # of iterations =  4.0

     total cpu time spent up to now is        4.6 secs

     total energy              =    -100.60370030 Ry
     estimated scf accuracy    <       0.00000333 Ry

     iteration #  8     ecut=    35.00 Ry     beta= 0.50
     Davidson diagonalization with overlap
     ethr =  9.25E-09,  avg # of iterations =  2.0

     total cpu time spent up to now is        5.1 secs

     total energy              =    -100.60369969 Ry
     estimated scf accuracy    <       0.00000245 Ry

     iteration #  9     ecut=    35.00 Ry     beta= 0.50
     Davidson diagonalization with overlap
     ethr =  6.81E-09,  avg # of iterations =  4.0

     total cpu time spent up to now is        5.7 secs

     total energy              =    -100.60370040 Ry
     estimated scf accuracy    <       0.00000023 Ry

     iteration # 10     ecut=    35.00 Ry     beta= 0.50
     Davidson diagonalization with overlap
     ethr =  6.36E-10,  avg # of iterations =  4.0

     total cpu time spent up to now is        6.3 secs

     total energy              =    -100.60370044 Ry
     estimated scf accuracy    <          9.0E-09 Ry

     iteration # 11     ecut=    35.00 Ry     beta= 0.50
     Davidson diagonalization with overlap
     ethr =  2.51E-11,  avg # of iterations =  5.0

     total cpu time spent up to now is        6.9 secs

     total energy              =    -100.60370045 Ry
     estimated scf accuracy    <          3.4E-09 Ry

     iteration # 12     ecut=    35.00 Ry     beta= 0.50
     Davidson diagonalization with overlap
     ethr =  9.56E-12,  avg # of iterations =  4.0

     total cpu time spent up to now is        7.5 secs

     total energy              =    -100.60370045 Ry
     estimated scf accuracy    <          2.1E-10 Ry

     iteration # 13     ecut=    35.00 Ry     beta= 0.50
     Davidson diagonalization with overlap
     ethr =  5.89E-13,  avg # of iterations =  6.0

     total cpu time spent up to now is        8.1 secs

     total energy              =    -100.60370045 Ry
     estimated scf accuracy    <          1.9E-10 Ry

     iteration # 14     ecut=    35.00 Ry     beta= 0.50
     Davidson diagonalization with overlap
     ethr =  5.35E-13,  avg # of iterations =  4.0

     total cpu time spent up to now is        8.6 secs

     total energy              =    -100.60370045 Ry
     estimated scf accuracy    <          1.1E-11 Ry

     iteration # 15     ecut=    35.00 Ry     beta= 0.50
     Davidson diagonalization with overlap
     ethr =  1.00E-13,  avg # of iterations =  2.0

     total cpu time spent up to now is        9.1 secs

     End of self-consistent calculation

          k = 0.0000 0.0000 0.0000 ( 14009 PWs)   bands (ev):

   -22.4236 -20.3728 -17.9353 -17.4988 -14.5611 -14.1436 -12.3223 -12.0022
   -10.9439  -9.8466  -9.8286  -9.4941  -8.7598  -7.8076  -7.5049  -6.8400
    -5.5717  -4.3768

     highest occupied level (ev):    -4.3768

!    total energy              =    -100.60370045 Ry
     estimated scf accuracy    <          7.6E-13 Ry

     The total energy is the sum of the following terms:
     one-electron contribution =    -347.56221581 Ry
     hartree contribution      =     178.72314749 Ry
     xc contribution           =     -36.55830290 Ry
     ewald contribution        =     104.79367078 Ry

     convergence has been achieved in  15 iterations

     Forces acting on atoms (cartesian axes, Ry/au):

     atom    1 type  1   force =     0.00294568    0.00640299   -0.00157105
     atom    2 type  1   force =     0.00142380   -0.01237749    0.00014129
     atom    3 type  1   force =    -0.00429464    0.00506827   -0.00146712
     atom    4 type  1   force =     0.01369190   -0.01337764   -0.00182069
     atom    5 type  1   force =    -0.00909387    0.06960074    0.01138843
     atom    6 type  1   force =    -0.00904138   -0.01644033   -0.00198327
     atom    7 type  2   force =    -0.01040427   -0.00664849    0.00015810
     atom    8 type  2   force =     0.00178425   -0.01188124    0.00008898
     atom    9 type  2   force =     0.01178776   -0.00340614    0.00018394
     atom   10 type  2   force =     0.01033088    0.00949197    0.00032480
     atom   11 type  2   force =    -0.01249320    0.00630698    0.00040036
     atom   12 type  3   force =     0.00257143   -0.07861850   -0.04612021
     atom   13 type  2   force =     0.03988992    0.02999246    0.02212493
     atom   14 type  2   force =    -0.03909825    0.01588641    0.01815149

     Total force =     0.142414     Total SCF correction =     0.000001

     Writing output data file ./Aniline.save/

     init_run     :      0.55s CPU      0.59s WALL (       1 calls)
     electrons    :      8.27s CPU      8.43s WALL (       1 calls)
     forces       :      0.37s CPU      0.38s WALL (       1 calls)

     Called by init_run:
     wfcinit      :      0.23s CPU      0.23s WALL (       1 calls)
     potinit      :      0.20s CPU      0.22s WALL (       1 calls)
     hinit0       :      0.10s CPU      0.11s WALL (       1 calls)

     Called by electrons:
     c_bands      :      5.46s CPU      5.50s WALL (      15 calls)
     sum_band     :      0.91s CPU      0.93s WALL (      15 calls)
     v_of_rho     :      1.61s CPU      1.72s WALL (      16 calls)
     mix_rho      :      0.32s CPU      0.33s WALL (      15 calls)

     Called by c_bands:
     init_us_2    :      0.08s CPU      0.09s WALL (      31 calls)
     regterg      :      5.36s CPU      5.39s WALL (      15 calls)

     Called by *egterg:
     rdiaghg      :      0.06s CPU      0.06s WALL (      65 calls)
     h_psi        :      4.58s CPU      4.61s WALL (      66 calls)
     g_psi        :      0.01s CPU      0.01s WALL (      50 calls)

     Called by h_psi:
     h_psi:calbec :      0.78s CPU      0.78s WALL (      66 calls)
     vloc_psi     :      3.17s CPU      3.20s WALL (      66 calls)
     add_vuspsi   :      0.61s CPU      0.61s WALL (      66 calls)

     General routines
     calbec       :      0.84s CPU      0.85s WALL (      70 calls)
     fft          :      0.93s CPU      0.96s WALL (     136 calls)
     ffts         :      0.10s CPU      0.10s WALL (      15 calls)
     fftw         :      2.94s CPU      2.97s WALL (     975 calls)

     Parallel routines

     PWSCF        :      9.30s CPU      9.52s WALL


   This run was terminated on:   4:56: 4  24May2021            

=------------------------------------------------------------------------------=
   JOB DONE.
=------------------------------------------------------------------------------=
