
     Program PWSCF v.6.7GPU starts on 24May2021 at  4:58:58 

     This program is part of the open-source Quantum ESPRESSO suite
     for quantum simulation of materials; please cite
         "P. Giannozzi et al., J. Phys.:Condens. Matter 21 395502 (2009);
         "P. Giannozzi et al., J. Phys.:Condens. Matter 29 465901 (2017);
         "P. Giannozzi et al., J. Chem. Phys. 152 154105 (2020);
          URL http://www.quantum-espresso.org", 
     in publications or presentations arising from this work. More details at
     http://www.quantum-espresso.org/quote

     Parallel version (MPI), running on     4 processors

     MPI processes distributed on     1 nodes
     R & G space division:  proc/nbgrp/npool/nimage =       4
     Waiting for input...
     Reading input from standard input
     Message from routine read_cards :
     DEPRECATED: no units specified in CELL_PARAMETERS card

     Current dimensions of program PWSCF are:
     Max number of different atomic species (ntypx) = 10
     Max number of k-points (npk) =  40000
     Max angular momentum in pseudopotentials (lmaxx) =  3

     gamma-point specific algorithms are used

     Subspace diagonalization in iterative solution of the eigenvalue problem:
     one sub-group per band group will be used
     scalapack distributed-memory algorithm (size of sub-group:  2*  2 procs)


     Parallelization info
     --------------------
     sticks:   dense  smooth     PW     G-vecs:    dense   smooth      PW
     Min        2386    2386    595               175366   175366   21912
     Max        2388    2388    598               175372   175372   21918
     Sum        9549    9549   2385               701475   701475   87655

     Using Slab Decomposition



     bravais-lattice index     =            0
     lattice parameter (alat)  =      20.0000  a.u.
     unit-cell volume          =    8000.0000 (a.u.)^3
     number of atoms/cell      =           14
     number of atomic types    =            3
     number of electrons       =        36.00
     number of Kohn-Sham states=           18
     kinetic-energy cutoff     =      75.0000  Ry
     charge density cutoff     =     300.0000  Ry
     scf convergence threshold =      1.0E-12
     mixing beta               =       0.5000
     number of iterations used =            8  plain     mixing
     Exchange-correlation= PBE
                           (   1   4   3   4   0   0   0)

     celldm(1)=  20.000000  celldm(2)=   0.000000  celldm(3)=   0.000000
     celldm(4)=   0.000000  celldm(5)=   0.000000  celldm(6)=   0.000000

     crystal axes: (cart. coord. in units of alat)
               a(1) = (   1.000000   0.000000   0.000000 )  
               a(2) = (   0.000000   1.000000   0.000000 )  
               a(3) = (   0.000000   0.000000   1.000000 )  

     reciprocal axes: (cart. coord. in units 2 pi/alat)
               b(1) = (  1.000000  0.000000  0.000000 )  
               b(2) = (  0.000000  1.000000  0.000000 )  
               b(3) = (  0.000000  0.000000  1.000000 )  


     PseudoPot. # 1 for C  read from file:
     /home/ciga/builds/pseudo_potentials/C.upf
     MD5 check sum: d80ec9912146af6c4c1760317d1f95e9
     Pseudo is Norm-conserving + core correction, Zval =  4.0
     Generated using ONCVPSP code by D. R. Hamann
     Using radial grid of 1248 points,  4 beta functions with: 
                l(1) =   0
                l(2) =   0
                l(3) =   1
                l(4) =   1

     PseudoPot. # 2 for H  read from file:
     /home/ciga/builds/pseudo_potentials/H.upf
     MD5 check sum: 418cee52d0c413ae40802e6cc37ab9e3
     Pseudo is Norm-conserving, Zval =  1.0
     Generated using ONCVPSP code by D. R. Hamann
     Using radial grid of 1166 points,  3 beta functions with: 
                l(1) =   0
                l(2) =   0
                l(3) =   1

     PseudoPot. # 3 for N  read from file:
     /home/ciga/builds/pseudo_potentials/N.upf
     MD5 check sum: ff7f9f91e4136e6855b4906c31c1cc72
     Pseudo is Norm-conserving + core correction, Zval =  5.0
     Generated using ONCVPSP code by D. R. Hamann
     Using radial grid of 1058 points,  4 beta functions with: 
                l(1) =   0
                l(2) =   0
                l(3) =   1
                l(4) =   1

     atomic species   valence    mass     pseudopotential
        C              4.00    12.01070     C ( 1.00)
        H              1.00     1.00794     H ( 1.00)
        N              5.00    14.00670     N ( 1.00)

     No symmetry found



   Cartesian axes

     site n.     atom                  positions (alat units)
         1           C   tau(   1) = (  -0.1026256  -0.0822528   0.0000000  )
         2           C   tau(   2) = (   0.0199215  -0.1300024   0.0000000  )
         3           C   tau(   3) = (   0.1225377  -0.0477496   0.0000000  )
         4           C   tau(   4) = (   0.1026255   0.0822528   0.0000000  )
         5           C   tau(   5) = (  -0.0199216   0.1299929   0.0000000  )
         6           C   tau(   6) = (  -0.1225471   0.0477402   0.0000000  )
         7           H   tau(   7) = (  -0.1826141  -0.1463074   0.0000000  )
         8           H   tau(   8) = (   0.0354305  -0.2312971   0.0000000  )
         9           H   tau(   9) = (   0.2180247  -0.0849434   0.0000000  )
        10           H   tau(  10) = (   0.1825837   0.1463451   0.0000000  )
        11           H   tau(  11) = (  -0.2180585   0.0848716   0.0000000  )
        12           N   tau(  12) = (  -0.0404875   0.2636316   0.0000000  )
        13           H   tau(  13) = (   0.0305727   0.3156470   0.0327460  )
        14           H   tau(  14) = (  -0.1253988   0.2900890   0.0315565  )

     number of k points=     1
                       cart. coord. in units 2pi/alat
        k(    1) = (   0.0000000   0.0000000   0.0000000), wk =   2.0000000

     Dense  grid:   350738 G-vectors     FFT dimensions: ( 120, 120, 120)

     Estimated max dynamical RAM per process >     102.98 MB

     Estimated total dynamical RAM >     411.91 MB

     Initial potential from superposition of free atoms

     starting charge   35.99966, renormalised to   36.00000

     negative rho (up, down):  1.184E-04 0.000E+00
     Starting wfcs are   35 randomized atomic wfcs

     total cpu time spent up to now is        2.1 secs

     Self-consistent Calculation

     iteration #  1     ecut=    75.00 Ry     beta= 0.50
     Davidson diagonalization with overlap
     ethr =  1.00E-02,  avg # of iterations =  2.0

     negative rho (up, down):  3.373E-05 0.000E+00

     total cpu time spent up to now is        4.3 secs

     total energy              =    -100.97668896 Ry
     estimated scf accuracy    <       1.71883784 Ry

     iteration #  2     ecut=    75.00 Ry     beta= 0.50
     Davidson diagonalization with overlap
     ethr =  4.77E-03,  avg # of iterations =  2.0

     negative rho (up, down):  1.246E-05 0.000E+00

     total cpu time spent up to now is        6.4 secs

     total energy              =    -101.24677897 Ry
     estimated scf accuracy    <       0.11946761 Ry

     iteration #  3     ecut=    75.00 Ry     beta= 0.50
     Davidson diagonalization with overlap
     ethr =  3.32E-04,  avg # of iterations =  2.0

     negative rho (up, down):  1.202E-06 0.000E+00

     total cpu time spent up to now is        8.2 secs

     total energy              =    -101.24749051 Ry
     estimated scf accuracy    <       0.02315479 Ry

     iteration #  4     ecut=    75.00 Ry     beta= 0.50
     Davidson diagonalization with overlap
     ethr =  6.43E-05,  avg # of iterations =  2.0

     negative rho (up, down):  2.152E-07 0.000E+00

     total cpu time spent up to now is       10.3 secs

     total energy              =    -101.25057052 Ry
     estimated scf accuracy    <       0.00178341 Ry

     iteration #  5     ecut=    75.00 Ry     beta= 0.50
     Davidson diagonalization with overlap
     ethr =  4.95E-06,  avg # of iterations =  2.0

     negative rho (up, down):  4.642E-08 0.000E+00

     total cpu time spent up to now is       12.6 secs

     total energy              =    -101.25104211 Ry
     estimated scf accuracy    <       0.00010015 Ry

     iteration #  6     ecut=    75.00 Ry     beta= 0.50
     Davidson diagonalization with overlap
     ethr =  2.78E-07,  avg # of iterations =  4.0

     total cpu time spent up to now is       14.8 secs

     total energy              =    -101.25106696 Ry
     estimated scf accuracy    <       0.00001593 Ry

     iteration #  7     ecut=    75.00 Ry     beta= 0.50
     Davidson diagonalization with overlap
     ethr =  4.42E-08,  avg # of iterations =  5.0

     total cpu time spent up to now is       17.3 secs

     total energy              =    -101.25107126 Ry
     estimated scf accuracy    <       0.00000773 Ry

     iteration #  8     ecut=    75.00 Ry     beta= 0.50
     Davidson diagonalization with overlap
     ethr =  2.15E-08,  avg # of iterations =  5.0

     total cpu time spent up to now is       19.3 secs

     total energy              =    -101.25107090 Ry
     estimated scf accuracy    <       0.00000238 Ry

     iteration #  9     ecut=    75.00 Ry     beta= 0.50
     Davidson diagonalization with overlap
     ethr =  6.62E-09,  avg # of iterations =  4.0

     total cpu time spent up to now is       21.6 secs

     total energy              =    -101.25107161 Ry
     estimated scf accuracy    <       0.00000027 Ry

     iteration # 10     ecut=    75.00 Ry     beta= 0.50
     Davidson diagonalization with overlap
     ethr =  7.49E-10,  avg # of iterations =  5.0

     total cpu time spent up to now is       23.8 secs

     total energy              =    -101.25107161 Ry
     estimated scf accuracy    <       0.00000014 Ry

     iteration # 11     ecut=    75.00 Ry     beta= 0.50
     Davidson diagonalization with overlap
     ethr =  3.78E-10,  avg # of iterations =  3.0

     total cpu time spent up to now is       25.9 secs

     total energy              =    -101.25107163 Ry
     estimated scf accuracy    <       0.00000001 Ry

     iteration # 12     ecut=    75.00 Ry     beta= 0.50
     Davidson diagonalization with overlap
     ethr =  3.10E-11,  avg # of iterations =  6.0

     total cpu time spent up to now is       28.7 secs

     total energy              =    -101.25107163 Ry
     estimated scf accuracy    <       0.00000002 Ry

     iteration # 13     ecut=    75.00 Ry     beta= 0.50
     Davidson diagonalization with overlap
     ethr =  3.10E-11,  avg # of iterations =  6.0

     total cpu time spent up to now is       31.3 secs

     total energy              =    -101.25107163 Ry
     estimated scf accuracy    <          2.0E-09 Ry

     iteration # 14     ecut=    75.00 Ry     beta= 0.50
     Davidson diagonalization with overlap
     ethr =  5.66E-12,  avg # of iterations =  5.0

     total cpu time spent up to now is       33.4 secs

     total energy              =    -101.25107163 Ry
     estimated scf accuracy    <          4.1E-10 Ry

     iteration # 15     ecut=    75.00 Ry     beta= 0.50
     Davidson diagonalization with overlap
     ethr =  1.15E-12,  avg # of iterations =  5.0

     total cpu time spent up to now is       35.8 secs

     total energy              =    -101.25107163 Ry
     estimated scf accuracy    <          4.8E-11 Ry

     iteration # 16     ecut=    75.00 Ry     beta= 0.50
     Davidson diagonalization with overlap
     ethr =  1.33E-13,  avg # of iterations =  2.0

     total cpu time spent up to now is       37.7 secs

     total energy              =    -101.25107163 Ry
     estimated scf accuracy    <          6.4E-12 Ry

     iteration # 17     ecut=    75.00 Ry     beta= 0.50
     Davidson diagonalization with overlap
     ethr =  1.00E-13,  avg # of iterations =  5.0

     total cpu time spent up to now is       39.8 secs

     total energy              =    -101.25107163 Ry
     estimated scf accuracy    <          2.0E-11 Ry

     iteration # 18     ecut=    75.00 Ry     beta= 0.50
     Davidson diagonalization with overlap
     ethr =  1.00E-13,  avg # of iterations =  2.0

     total cpu time spent up to now is       41.7 secs

     total energy              =    -101.25107163 Ry
     estimated scf accuracy    <          3.3E-12 Ry

     iteration # 19     ecut=    75.00 Ry     beta= 0.50
     Davidson diagonalization with overlap
     ethr =  1.00E-13,  avg # of iterations =  2.0

     total cpu time spent up to now is       43.4 secs

     End of self-consistent calculation

          k = 0.0000 0.0000 0.0000 ( 43828 PWs)   bands (ev):

   -22.1497 -20.1701 -17.7629 -17.3179 -14.4592 -14.0389 -12.2950 -11.9553
   -10.9013  -9.8730  -9.8326  -9.5033  -8.7359  -7.8445  -7.5503  -6.8327
    -5.5837  -4.4024

     highest occupied level (ev):    -4.4024

!    total energy              =    -101.25107163 Ry
     estimated scf accuracy    <          3.3E-14 Ry

     The total energy is the sum of the following terms:
     one-electron contribution =    -348.76002673 Ry
     hartree contribution      =     179.48324043 Ry
     xc contribution           =     -36.76795608 Ry
     ewald contribution        =     104.79367074 Ry

     convergence has been achieved in  19 iterations

     Forces acting on atoms (cartesian axes, Ry/au):

     atom    1 type  1   force =     0.00164356    0.00571096   -0.00137528
     atom    2 type  1   force =     0.00193699   -0.01328745    0.00008903
     atom    3 type  1   force =    -0.00311519    0.00503290   -0.00127875
     atom    4 type  1   force =     0.01339643   -0.01077476   -0.00170096
     atom    5 type  1   force =    -0.00881879    0.06840569    0.00943973
     atom    6 type  1   force =    -0.00948924   -0.01424488   -0.00177826
     atom    7 type  2   force =    -0.00532251   -0.00287440    0.00014493
     atom    8 type  2   force =     0.00091394   -0.00565311    0.00006454
     atom    9 type  2   force =     0.00595770   -0.00111953    0.00016996
     atom   10 type  2   force =     0.00523960    0.00548248    0.00023065
     atom   11 type  2   force =    -0.00671223    0.00380607    0.00029041
     atom   12 type  3   force =     0.00105725   -0.06676239   -0.02491613
     atom   13 type  2   force =     0.02163627    0.01684331    0.01198315
     atom   14 type  2   force =    -0.01832379    0.00943511    0.00863696

     Total force =     0.111321     Total SCF correction =     0.000000

     Writing output data file ./Aniline.save/

     init_run     :      1.90s CPU      1.99s WALL (       1 calls)
     electrons    :     40.67s CPU     41.31s WALL (       1 calls)
     forces       :      1.14s CPU      1.17s WALL (       1 calls)

     Called by init_run:
     wfcinit      :      0.93s CPU      0.94s WALL (       1 calls)
     potinit      :      0.59s CPU      0.63s WALL (       1 calls)
     hinit0       :      0.26s CPU      0.28s WALL (       1 calls)

     Called by electrons:
     c_bands      :     26.53s CPU     26.71s WALL (      19 calls)
     sum_band     :      5.02s CPU      5.08s WALL (      19 calls)
     v_of_rho     :      7.24s CPU      7.65s WALL (      20 calls)
     mix_rho      :      2.03s CPU      2.05s WALL (      19 calls)

     Called by c_bands:
     init_us_2    :      0.32s CPU      0.33s WALL (      39 calls)
     regterg      :     26.12s CPU     26.30s WALL (      19 calls)

     Called by *egterg:
     rdiaghg      :      0.08s CPU      0.08s WALL (      88 calls)
     h_psi        :     22.56s CPU     22.72s WALL (      89 calls)
     g_psi        :      0.05s CPU      0.05s WALL (      69 calls)

     Called by h_psi:
     h_psi:calbec :      2.82s CPU      2.83s WALL (      89 calls)
     vloc_psi     :     17.28s CPU     17.43s WALL (      89 calls)
     add_vuspsi   :      2.34s CPU      2.34s WALL (      89 calls)

     General routines
     calbec       :      3.03s CPU      3.04s WALL (      93 calls)
     fft          :      4.77s CPU      4.86s WALL (     168 calls)
     ffts         :      0.53s CPU      0.53s WALL (      19 calls)
     fftw         :     16.17s CPU     16.30s WALL (    1195 calls)

     Parallel routines

     PWSCF        :     43.82s CPU     44.61s WALL


   This run was terminated on:   4:59:42  24May2021            

=------------------------------------------------------------------------------=
   JOB DONE.
=------------------------------------------------------------------------------=
