
     Program PWSCF v.6.7GPU starts on 24May2021 at  5: 1:13 

     This program is part of the open-source Quantum ESPRESSO suite
     for quantum simulation of materials; please cite
         "P. Giannozzi et al., J. Phys.:Condens. Matter 21 395502 (2009);
         "P. Giannozzi et al., J. Phys.:Condens. Matter 29 465901 (2017);
         "P. Giannozzi et al., J. Chem. Phys. 152 154105 (2020);
          URL http://www.quantum-espresso.org", 
     in publications or presentations arising from this work. More details at
     http://www.quantum-espresso.org/quote

     Parallel version (MPI), running on     4 processors

     MPI processes distributed on     1 nodes
     R & G space division:  proc/nbgrp/npool/nimage =       4
     Waiting for input...
     Reading input from standard input
     Message from routine read_cards :
     DEPRECATED: no units specified in CELL_PARAMETERS card

     Current dimensions of program PWSCF are:
     Max number of different atomic species (ntypx) = 10
     Max number of k-points (npk) =  40000
     Max angular momentum in pseudopotentials (lmaxx) =  3

     gamma-point specific algorithms are used

     Subspace diagonalization in iterative solution of the eigenvalue problem:
     one sub-group per band group will be used
     scalapack distributed-memory algorithm (size of sub-group:  2*  2 procs)


     Parallelization info
     --------------------
     sticks:   dense  smooth     PW     G-vecs:    dense   smooth      PW
     Min        2862    2862    716               230578   230578   28824
     Max        2863    2863    718               230586   230586   28830
     Sum       11449   11449   2869               922329   922329  115313

     Using Slab Decomposition



     bravais-lattice index     =            0
     lattice parameter (alat)  =      20.0000  a.u.
     unit-cell volume          =    8000.0000 (a.u.)^3
     number of atoms/cell      =           14
     number of atomic types    =            3
     number of electrons       =        36.00
     number of Kohn-Sham states=           18
     kinetic-energy cutoff     =      90.0000  Ry
     charge density cutoff     =     360.0000  Ry
     scf convergence threshold =      1.0E-12
     mixing beta               =       0.5000
     number of iterations used =            8  plain     mixing
     Exchange-correlation= PBE
                           (   1   4   3   4   0   0   0)

     celldm(1)=  20.000000  celldm(2)=   0.000000  celldm(3)=   0.000000
     celldm(4)=   0.000000  celldm(5)=   0.000000  celldm(6)=   0.000000

     crystal axes: (cart. coord. in units of alat)
               a(1) = (   1.000000   0.000000   0.000000 )  
               a(2) = (   0.000000   1.000000   0.000000 )  
               a(3) = (   0.000000   0.000000   1.000000 )  

     reciprocal axes: (cart. coord. in units 2 pi/alat)
               b(1) = (  1.000000  0.000000  0.000000 )  
               b(2) = (  0.000000  1.000000  0.000000 )  
               b(3) = (  0.000000  0.000000  1.000000 )  


     PseudoPot. # 1 for C  read from file:
     /home/ciga/builds/pseudo_potentials/C.upf
     MD5 check sum: d80ec9912146af6c4c1760317d1f95e9
     Pseudo is Norm-conserving + core correction, Zval =  4.0
     Generated using ONCVPSP code by D. R. Hamann
     Using radial grid of 1248 points,  4 beta functions with: 
                l(1) =   0
                l(2) =   0
                l(3) =   1
                l(4) =   1

     PseudoPot. # 2 for H  read from file:
     /home/ciga/builds/pseudo_potentials/H.upf
     MD5 check sum: 418cee52d0c413ae40802e6cc37ab9e3
     Pseudo is Norm-conserving, Zval =  1.0
     Generated using ONCVPSP code by D. R. Hamann
     Using radial grid of 1166 points,  3 beta functions with: 
                l(1) =   0
                l(2) =   0
                l(3) =   1

     PseudoPot. # 3 for N  read from file:
     /home/ciga/builds/pseudo_potentials/N.upf
     MD5 check sum: ff7f9f91e4136e6855b4906c31c1cc72
     Pseudo is Norm-conserving + core correction, Zval =  5.0
     Generated using ONCVPSP code by D. R. Hamann
     Using radial grid of 1058 points,  4 beta functions with: 
                l(1) =   0
                l(2) =   0
                l(3) =   1
                l(4) =   1

     atomic species   valence    mass     pseudopotential
        C              4.00    12.01070     C ( 1.00)
        H              1.00     1.00794     H ( 1.00)
        N              5.00    14.00670     N ( 1.00)

     No symmetry found



   Cartesian axes

     site n.     atom                  positions (alat units)
         1           C   tau(   1) = (  -0.1026256  -0.0822528   0.0000000  )
         2           C   tau(   2) = (   0.0199215  -0.1300024   0.0000000  )
         3           C   tau(   3) = (   0.1225377  -0.0477496   0.0000000  )
         4           C   tau(   4) = (   0.1026255   0.0822528   0.0000000  )
         5           C   tau(   5) = (  -0.0199216   0.1299929   0.0000000  )
         6           C   tau(   6) = (  -0.1225471   0.0477402   0.0000000  )
         7           H   tau(   7) = (  -0.1826141  -0.1463074   0.0000000  )
         8           H   tau(   8) = (   0.0354305  -0.2312971   0.0000000  )
         9           H   tau(   9) = (   0.2180247  -0.0849434   0.0000000  )
        10           H   tau(  10) = (   0.1825837   0.1463451   0.0000000  )
        11           H   tau(  11) = (  -0.2180585   0.0848716   0.0000000  )
        12           N   tau(  12) = (  -0.0404875   0.2636316   0.0000000  )
        13           H   tau(  13) = (   0.0305727   0.3156470   0.0327460  )
        14           H   tau(  14) = (  -0.1253988   0.2900890   0.0315565  )

     number of k points=     1
                       cart. coord. in units 2pi/alat
        k(    1) = (   0.0000000   0.0000000   0.0000000), wk =   2.0000000

     Dense  grid:   461165 G-vectors     FFT dimensions: ( 125, 125, 125)

     Estimated max dynamical RAM per process >     130.45 MB

     Estimated total dynamical RAM >     521.81 MB

     Initial potential from superposition of free atoms

     starting charge   35.99966, renormalised to   36.00000

     negative rho (up, down):  2.083E-05 0.000E+00
     Starting wfcs are   35 randomized atomic wfcs

     total cpu time spent up to now is        2.6 secs

     Self-consistent Calculation

     iteration #  1     ecut=    90.00 Ry     beta= 0.50
     Davidson diagonalization with overlap
     ethr =  1.00E-02,  avg # of iterations =  2.0

     negative rho (up, down):  1.442E-06 0.000E+00

     total cpu time spent up to now is        5.5 secs

     total energy              =    -100.97849109 Ry
     estimated scf accuracy    <       1.71855587 Ry

     iteration #  2     ecut=    90.00 Ry     beta= 0.50
     Davidson diagonalization with overlap
     ethr =  4.77E-03,  avg # of iterations =  2.0

     negative rho (up, down):  2.919E-07 0.000E+00

     total cpu time spent up to now is        8.3 secs

     total energy              =    -101.24836732 Ry
     estimated scf accuracy    <       0.11929955 Ry

     iteration #  3     ecut=    90.00 Ry     beta= 0.50
     Davidson diagonalization with overlap
     ethr =  3.31E-04,  avg # of iterations =  2.0

     negative rho (up, down):  1.031E-08 0.000E+00

     total cpu time spent up to now is       10.6 secs

     total energy              =    -101.24915593 Ry
     estimated scf accuracy    <       0.02309151 Ry

     iteration #  4     ecut=    90.00 Ry     beta= 0.50
     Davidson diagonalization with overlap
     ethr =  6.41E-05,  avg # of iterations =  2.0

     total cpu time spent up to now is       13.3 secs

     total energy              =    -101.25222520 Ry
     estimated scf accuracy    <       0.00176693 Ry

     iteration #  5     ecut=    90.00 Ry     beta= 0.50
     Davidson diagonalization with overlap
     ethr =  4.91E-06,  avg # of iterations =  2.0

     total cpu time spent up to now is       16.2 secs

     total energy              =    -101.25269409 Ry
     estimated scf accuracy    <       0.00009986 Ry

     iteration #  6     ecut=    90.00 Ry     beta= 0.50
     Davidson diagonalization with overlap
     ethr =  2.77E-07,  avg # of iterations =  4.0

     total cpu time spent up to now is       19.2 secs

     total energy              =    -101.25271851 Ry
     estimated scf accuracy    <       0.00001613 Ry

     iteration #  7     ecut=    90.00 Ry     beta= 0.50
     Davidson diagonalization with overlap
     ethr =  4.48E-08,  avg # of iterations =  5.0

     total cpu time spent up to now is       22.4 secs

     total energy              =    -101.25272301 Ry
     estimated scf accuracy    <       0.00000753 Ry

     iteration #  8     ecut=    90.00 Ry     beta= 0.50
     Davidson diagonalization with overlap
     ethr =  2.09E-08,  avg # of iterations =  5.0

     total cpu time spent up to now is       24.9 secs

     total energy              =    -101.25272251 Ry
     estimated scf accuracy    <       0.00000245 Ry

     iteration #  9     ecut=    90.00 Ry     beta= 0.50
     Davidson diagonalization with overlap
     ethr =  6.79E-09,  avg # of iterations =  4.0

     total cpu time spent up to now is       28.0 secs

     total energy              =    -101.25272326 Ry
     estimated scf accuracy    <       0.00000028 Ry

     iteration # 10     ecut=    90.00 Ry     beta= 0.50
     Davidson diagonalization with overlap
     ethr =  7.87E-10,  avg # of iterations =  5.0

     total cpu time spent up to now is       30.9 secs

     total energy              =    -101.25272326 Ry
     estimated scf accuracy    <       0.00000016 Ry

     iteration # 11     ecut=    90.00 Ry     beta= 0.50
     Davidson diagonalization with overlap
     ethr =  4.36E-10,  avg # of iterations =  3.0

     total cpu time spent up to now is       33.5 secs

     total energy              =    -101.25272327 Ry
     estimated scf accuracy    <       0.00000002 Ry

     iteration # 12     ecut=    90.00 Ry     beta= 0.50
     Davidson diagonalization with overlap
     ethr =  5.42E-11,  avg # of iterations =  6.0

     total cpu time spent up to now is       37.2 secs

     total energy              =    -101.25272328 Ry
     estimated scf accuracy    <       0.00000004 Ry

     iteration # 13     ecut=    90.00 Ry     beta= 0.50
     Davidson diagonalization with overlap
     ethr =  5.42E-11,  avg # of iterations =  4.0

     total cpu time spent up to now is       40.4 secs

     total energy              =    -101.25272328 Ry
     estimated scf accuracy    <          3.7E-10 Ry

     iteration # 14     ecut=    90.00 Ry     beta= 0.50
     Davidson diagonalization with overlap
     ethr =  1.03E-12,  avg # of iterations =  7.0

     total cpu time spent up to now is       44.4 secs

     total energy              =    -101.25272328 Ry
     estimated scf accuracy    <          6.6E-10 Ry

     iteration # 15     ecut=    90.00 Ry     beta= 0.50
     Davidson diagonalization with overlap
     ethr =  1.03E-12,  avg # of iterations =  4.0

     total cpu time spent up to now is       47.3 secs

     total energy              =    -101.25272328 Ry
     estimated scf accuracy    <          2.5E-11 Ry

     iteration # 16     ecut=    90.00 Ry     beta= 0.50
     Davidson diagonalization with overlap
     ethr =  1.00E-13,  avg # of iterations =  5.0

     total cpu time spent up to now is       50.5 secs

     total energy              =    -101.25272328 Ry
     estimated scf accuracy    <          7.7E-12 Ry

     iteration # 17     ecut=    90.00 Ry     beta= 0.50
     Davidson diagonalization with overlap
     ethr =  1.00E-13,  avg # of iterations =  2.0

     total cpu time spent up to now is       52.7 secs

     End of self-consistent calculation

          k = 0.0000 0.0000 0.0000 ( 57657 PWs)   bands (ev):

   -22.1492 -20.1694 -17.7621 -17.3171 -14.4587 -14.0383 -12.2947 -11.9551
   -10.9009  -9.8729  -9.8324  -9.5031  -8.7357  -7.8445  -7.5503  -6.8326
    -5.5837  -4.4024

     highest occupied level (ev):    -4.4024

!    total energy              =    -101.25272328 Ry
     estimated scf accuracy    <          1.6E-13 Ry

     The total energy is the sum of the following terms:
     one-electron contribution =    -348.76271788 Ry
     hartree contribution      =     179.48517754 Ry
     xc contribution           =     -36.76885369 Ry
     ewald contribution        =     104.79367074 Ry

     convergence has been achieved in  17 iterations

     Forces acting on atoms (cartesian axes, Ry/au):

     atom    1 type  1   force =     0.00160057    0.00568511   -0.00137507
     atom    2 type  1   force =     0.00193990   -0.01333100    0.00008956
     atom    3 type  1   force =    -0.00307425    0.00500640   -0.00127827
     atom    4 type  1   force =     0.01342582   -0.01073989   -0.00170052
     atom    5 type  1   force =    -0.00881656    0.06839481    0.00943866
     atom    6 type  1   force =    -0.00952072   -0.01420719   -0.00177827
     atom    7 type  2   force =    -0.00527490   -0.00283919    0.00014479
     atom    8 type  2   force =     0.00090641   -0.00559951    0.00006439
     atom    9 type  2   force =     0.00590581   -0.00109746    0.00016986
     atom   10 type  2   force =     0.00519290    0.00544764    0.00023054
     atom   11 type  2   force =    -0.00666143    0.00378446    0.00029033
     atom   12 type  3   force =     0.00106056   -0.06676831   -0.02490186
     atom   13 type  2   force =     0.02162522    0.01683488    0.01197628
     atom   14 type  2   force =    -0.01830933    0.00942924    0.00862958

     Total force =     0.111289     Total SCF correction =     0.000001

     Writing output data file ./Aniline.save/

     init_run     :      2.39s CPU      2.51s WALL (       1 calls)
     electrons    :     49.39s CPU     50.16s WALL (       1 calls)
     forces       :      1.42s CPU      1.48s WALL (       1 calls)

     Called by init_run:
     wfcinit      :      1.23s CPU      1.25s WALL (       1 calls)
     potinit      :      0.69s CPU      0.76s WALL (       1 calls)
     hinit0       :      0.28s CPU      0.31s WALL (       1 calls)

     Called by electrons:
     c_bands      :     34.11s CPU     34.33s WALL (      17 calls)
     sum_band     :      5.54s CPU      5.58s WALL (      17 calls)
     v_of_rho     :      7.72s CPU      8.23s WALL (      18 calls)
     mix_rho      :      2.23s CPU      2.26s WALL (      17 calls)

     Called by c_bands:
     init_us_2    :      0.39s CPU      0.40s WALL (      35 calls)
     regterg      :     33.61s CPU     33.82s WALL (      17 calls)

     Called by *egterg:
     rdiaghg      :      0.08s CPU      0.08s WALL (      81 calls)
     h_psi        :     28.71s CPU     28.89s WALL (      82 calls)
     g_psi        :      0.07s CPU      0.07s WALL (      64 calls)

     Called by h_psi:
     h_psi:calbec :      3.70s CPU      3.71s WALL (      82 calls)
     vloc_psi     :     21.81s CPU     21.98s WALL (      82 calls)
     add_vuspsi   :      3.04s CPU      3.05s WALL (      82 calls)

     General routines
     calbec       :      3.99s CPU      4.00s WALL (      86 calls)
     fft          :      5.26s CPU      5.39s WALL (     152 calls)
     ffts         :      0.59s CPU      0.60s WALL (      17 calls)
     fftw         :     20.55s CPU     20.70s WALL (    1135 calls)

     Parallel routines

     PWSCF        :     53.30s CPU     54.29s WALL


   This run was terminated on:   5: 2: 8  24May2021            

=------------------------------------------------------------------------------=
   JOB DONE.
=------------------------------------------------------------------------------=
