
     Program PWSCF v.6.7GPU starts on 24May2021 at  5: 0:30 

     This program is part of the open-source Quantum ESPRESSO suite
     for quantum simulation of materials; please cite
         "P. Giannozzi et al., J. Phys.:Condens. Matter 21 395502 (2009);
         "P. Giannozzi et al., J. Phys.:Condens. Matter 29 465901 (2017);
         "P. Giannozzi et al., J. Chem. Phys. 152 154105 (2020);
          URL http://www.quantum-espresso.org", 
     in publications or presentations arising from this work. More details at
     http://www.quantum-espresso.org/quote

     Parallel version (MPI), running on     4 processors

     MPI processes distributed on     1 nodes
     R & G space division:  proc/nbgrp/npool/nimage =       4
     Waiting for input...
     Reading input from standard input
     Message from routine read_cards :
     DEPRECATED: no units specified in CELL_PARAMETERS card

     Current dimensions of program PWSCF are:
     Max number of different atomic species (ntypx) = 10
     Max number of k-points (npk) =  40000
     Max angular momentum in pseudopotentials (lmaxx) =  3

     gamma-point specific algorithms are used

     Subspace diagonalization in iterative solution of the eigenvalue problem:
     one sub-group per band group will be used
     scalapack distributed-memory algorithm (size of sub-group:  2*  2 procs)


     Parallelization info
     --------------------
     sticks:   dense  smooth     PW     G-vecs:    dense   smooth      PW
     Min        2700    2700    675               211636   211636   26505
     Max        2704    2704    678               211641   211641   26514
     Sum       10805   10805   2709               846553   846553  106047

     Using Slab Decomposition



     bravais-lattice index     =            0
     lattice parameter (alat)  =      20.0000  a.u.
     unit-cell volume          =    8000.0000 (a.u.)^3
     number of atoms/cell      =           14
     number of atomic types    =            3
     number of electrons       =        36.00
     number of Kohn-Sham states=           18
     kinetic-energy cutoff     =      85.0000  Ry
     charge density cutoff     =     340.0000  Ry
     scf convergence threshold =      1.0E-12
     mixing beta               =       0.5000
     number of iterations used =            8  plain     mixing
     Exchange-correlation= PBE
                           (   1   4   3   4   0   0   0)

     celldm(1)=  20.000000  celldm(2)=   0.000000  celldm(3)=   0.000000
     celldm(4)=   0.000000  celldm(5)=   0.000000  celldm(6)=   0.000000

     crystal axes: (cart. coord. in units of alat)
               a(1) = (   1.000000   0.000000   0.000000 )  
               a(2) = (   0.000000   1.000000   0.000000 )  
               a(3) = (   0.000000   0.000000   1.000000 )  

     reciprocal axes: (cart. coord. in units 2 pi/alat)
               b(1) = (  1.000000  0.000000  0.000000 )  
               b(2) = (  0.000000  1.000000  0.000000 )  
               b(3) = (  0.000000  0.000000  1.000000 )  


     PseudoPot. # 1 for C  read from file:
     /home/ciga/builds/pseudo_potentials/C.upf
     MD5 check sum: d80ec9912146af6c4c1760317d1f95e9
     Pseudo is Norm-conserving + core correction, Zval =  4.0
     Generated using ONCVPSP code by D. R. Hamann
     Using radial grid of 1248 points,  4 beta functions with: 
                l(1) =   0
                l(2) =   0
                l(3) =   1
                l(4) =   1

     PseudoPot. # 2 for H  read from file:
     /home/ciga/builds/pseudo_potentials/H.upf
     MD5 check sum: 418cee52d0c413ae40802e6cc37ab9e3
     Pseudo is Norm-conserving, Zval =  1.0
     Generated using ONCVPSP code by D. R. Hamann
     Using radial grid of 1166 points,  3 beta functions with: 
                l(1) =   0
                l(2) =   0
                l(3) =   1

     PseudoPot. # 3 for N  read from file:
     /home/ciga/builds/pseudo_potentials/N.upf
     MD5 check sum: ff7f9f91e4136e6855b4906c31c1cc72
     Pseudo is Norm-conserving + core correction, Zval =  5.0
     Generated using ONCVPSP code by D. R. Hamann
     Using radial grid of 1058 points,  4 beta functions with: 
                l(1) =   0
                l(2) =   0
                l(3) =   1
                l(4) =   1

     atomic species   valence    mass     pseudopotential
        C              4.00    12.01070     C ( 1.00)
        H              1.00     1.00794     H ( 1.00)
        N              5.00    14.00670     N ( 1.00)

     No symmetry found



   Cartesian axes

     site n.     atom                  positions (alat units)
         1           C   tau(   1) = (  -0.1026256  -0.0822528   0.0000000  )
         2           C   tau(   2) = (   0.0199215  -0.1300024   0.0000000  )
         3           C   tau(   3) = (   0.1225377  -0.0477496   0.0000000  )
         4           C   tau(   4) = (   0.1026255   0.0822528   0.0000000  )
         5           C   tau(   5) = (  -0.0199216   0.1299929   0.0000000  )
         6           C   tau(   6) = (  -0.1225471   0.0477402   0.0000000  )
         7           H   tau(   7) = (  -0.1826141  -0.1463074   0.0000000  )
         8           H   tau(   8) = (   0.0354305  -0.2312971   0.0000000  )
         9           H   tau(   9) = (   0.2180247  -0.0849434   0.0000000  )
        10           H   tau(  10) = (   0.1825837   0.1463451   0.0000000  )
        11           H   tau(  11) = (  -0.2180585   0.0848716   0.0000000  )
        12           N   tau(  12) = (  -0.0404875   0.2636316   0.0000000  )
        13           H   tau(  13) = (   0.0305727   0.3156470   0.0327460  )
        14           H   tau(  14) = (  -0.1253988   0.2900890   0.0315565  )

     number of k points=     1
                       cart. coord. in units 2pi/alat
        k(    1) = (   0.0000000   0.0000000   0.0000000), wk =   2.0000000

     Dense  grid:   423277 G-vectors     FFT dimensions: ( 120, 120, 120)

     Estimated max dynamical RAM per process >     117.96 MB

     Estimated total dynamical RAM >     471.83 MB

     Initial potential from superposition of free atoms

     starting charge   35.99966, renormalised to   36.00000

     negative rho (up, down):  4.258E-05 0.000E+00
     Starting wfcs are   35 randomized atomic wfcs

     total cpu time spent up to now is        2.3 secs

     Self-consistent Calculation

     iteration #  1     ecut=    85.00 Ry     beta= 0.50
     Davidson diagonalization with overlap
     ethr =  1.00E-02,  avg # of iterations =  2.0

     negative rho (up, down):  6.672E-06 0.000E+00

     total cpu time spent up to now is        4.8 secs

     total energy              =    -100.97823694 Ry
     estimated scf accuracy    <       1.71927821 Ry

     iteration #  2     ecut=    85.00 Ry     beta= 0.50
     Davidson diagonalization with overlap
     ethr =  4.78E-03,  avg # of iterations =  2.0

     negative rho (up, down):  1.864E-06 0.000E+00

     total cpu time spent up to now is        7.2 secs

     total energy              =    -101.24834154 Ry
     estimated scf accuracy    <       0.11937273 Ry

     iteration #  3     ecut=    85.00 Ry     beta= 0.50
     Davidson diagonalization with overlap
     ethr =  3.32E-04,  avg # of iterations =  2.0

     negative rho (up, down):  1.127E-07 0.000E+00

     total cpu time spent up to now is        9.2 secs

     total energy              =    -101.24903358 Ry
     estimated scf accuracy    <       0.02273556 Ry

     iteration #  4     ecut=    85.00 Ry     beta= 0.50
     Davidson diagonalization with overlap
     ethr =  6.32E-05,  avg # of iterations =  2.0

     total cpu time spent up to now is       11.5 secs

     total energy              =    -101.25195946 Ry
     estimated scf accuracy    <       0.00191051 Ry

     iteration #  5     ecut=    85.00 Ry     beta= 0.50
     Davidson diagonalization with overlap
     ethr =  5.31E-06,  avg # of iterations =  3.0

     total cpu time spent up to now is       14.1 secs

     total energy              =    -101.25255340 Ry
     estimated scf accuracy    <       0.00032664 Ry

     iteration #  6     ecut=    85.00 Ry     beta= 0.50
     Davidson diagonalization with overlap
     ethr =  9.07E-07,  avg # of iterations =  2.0

     total cpu time spent up to now is       16.6 secs

     total energy              =    -101.25263469 Ry
     estimated scf accuracy    <       0.00001304 Ry

     iteration #  7     ecut=    85.00 Ry     beta= 0.50
     Davidson diagonalization with overlap
     ethr =  3.62E-08,  avg # of iterations =  6.0

     total cpu time spent up to now is       19.5 secs

     total energy              =    -101.25263970 Ry
     estimated scf accuracy    <       0.00000182 Ry

     iteration #  8     ecut=    85.00 Ry     beta= 0.50
     Davidson diagonalization with overlap
     ethr =  5.05E-09,  avg # of iterations =  6.0

     total cpu time spent up to now is       22.3 secs

     total energy              =    -101.25263909 Ry
     estimated scf accuracy    <       0.00000247 Ry

     iteration #  9     ecut=    85.00 Ry     beta= 0.50
     Davidson diagonalization with overlap
     ethr =  5.05E-09,  avg # of iterations =  5.0

     total cpu time spent up to now is       25.0 secs

     total energy              =    -101.25263987 Ry
     estimated scf accuracy    <       0.00000062 Ry

     iteration # 10     ecut=    85.00 Ry     beta= 0.50
     Davidson diagonalization with overlap
     ethr =  1.72E-09,  avg # of iterations =  4.0

     total cpu time spent up to now is       27.2 secs

     total energy              =    -101.25263994 Ry
     estimated scf accuracy    <       0.00000004 Ry

     iteration # 11     ecut=    85.00 Ry     beta= 0.50
     Davidson diagonalization with overlap
     ethr =  1.13E-10,  avg # of iterations =  5.0

     total cpu time spent up to now is       29.8 secs

     total energy              =    -101.25263995 Ry
     estimated scf accuracy    <          3.1E-09 Ry

     iteration # 12     ecut=    85.00 Ry     beta= 0.50
     Davidson diagonalization with overlap
     ethr =  8.61E-12,  avg # of iterations =  5.0

     total cpu time spent up to now is       32.6 secs

     total energy              =    -101.25263995 Ry
     estimated scf accuracy    <          5.8E-10 Ry

     iteration # 13     ecut=    85.00 Ry     beta= 0.50
     Davidson diagonalization with overlap
     ethr =  1.60E-12,  avg # of iterations =  5.0

     total cpu time spent up to now is       35.0 secs

     total energy              =    -101.25263995 Ry
     estimated scf accuracy    <          2.6E-10 Ry

     iteration # 14     ecut=    85.00 Ry     beta= 0.50
     Davidson diagonalization with overlap
     ethr =  7.28E-13,  avg # of iterations =  4.0

     total cpu time spent up to now is       37.5 secs

     total energy              =    -101.25263995 Ry
     estimated scf accuracy    <          3.6E-11 Ry

     iteration # 15     ecut=    85.00 Ry     beta= 0.50
     Davidson diagonalization with overlap
     ethr =  1.01E-13,  avg # of iterations =  4.0

     total cpu time spent up to now is       40.0 secs

     total energy              =    -101.25263995 Ry
     estimated scf accuracy    <          6.1E-12 Ry

     iteration # 16     ecut=    85.00 Ry     beta= 0.50
     Davidson diagonalization with overlap
     ethr =  1.00E-13,  avg # of iterations =  2.0

     total cpu time spent up to now is       41.9 secs

     End of self-consistent calculation

          k = 0.0000 0.0000 0.0000 ( 53024 PWs)   bands (ev):

   -22.1492 -20.1694 -17.7621 -17.3172 -14.4587 -14.0384 -12.2947 -11.9551
   -10.9010  -9.8730  -9.8325  -9.5031  -8.7357  -7.8445  -7.5503  -6.8326
    -5.5837  -4.4024

     highest occupied level (ev):    -4.4024

!    total energy              =    -101.25263995 Ry
     estimated scf accuracy    <          4.4E-13 Ry

     The total energy is the sum of the following terms:
     one-electron contribution =    -348.76257122 Ry
     hartree contribution      =     179.48506680 Ry
     xc contribution           =     -36.76880627 Ry
     ewald contribution        =     104.79367074 Ry

     convergence has been achieved in  16 iterations

     Forces acting on atoms (cartesian axes, Ry/au):

     atom    1 type  1   force =     0.00159856    0.00568365   -0.00137506
     atom    2 type  1   force =     0.00194012   -0.01333445    0.00008954
     atom    3 type  1   force =    -0.00307159    0.00500552   -0.00127845
     atom    4 type  1   force =     0.01342790   -0.01073804   -0.00170085
     atom    5 type  1   force =    -0.00881729    0.06840158    0.00943834
     atom    6 type  1   force =    -0.00952378   -0.01420552   -0.00177815
     atom    7 type  2   force =    -0.00527817   -0.00284205    0.00014491
     atom    8 type  2   force =     0.00090706   -0.00560384    0.00006449
     atom    9 type  2   force =     0.00590989   -0.00109919    0.00016998
     atom   10 type  2   force =     0.00519621    0.00545018    0.00023066
     atom   11 type  2   force =    -0.00666520    0.00378583    0.00029044
     atom   12 type  3   force =     0.00106055   -0.06677060   -0.02490454
     atom   13 type  2   force =     0.02162785    0.01683695    0.01197778
     atom   14 type  2   force =    -0.01831212    0.00942998    0.00863093

     Total force =     0.111298     Total SCF correction =     0.000001

     Writing output data file ./Aniline.save/

     init_run     :      2.10s CPU      2.23s WALL (       1 calls)
     electrons    :     38.89s CPU     39.55s WALL (       1 calls)
     forces       :      1.31s CPU      1.33s WALL (       1 calls)

     Called by init_run:
     wfcinit      :      1.04s CPU      1.06s WALL (       1 calls)
     potinit      :      0.62s CPU      0.69s WALL (       1 calls)
     hinit0       :      0.28s CPU      0.31s WALL (       1 calls)

     Called by electrons:
     c_bands      :     26.23s CPU     26.38s WALL (      16 calls)
     sum_band     :      4.54s CPU      4.58s WALL (      16 calls)
     v_of_rho     :      6.41s CPU      6.88s WALL (      17 calls)
     mix_rho      :      1.90s CPU      1.92s WALL (      16 calls)

     Called by c_bands:
     init_us_2    :      0.33s CPU      0.34s WALL (      33 calls)
     regterg      :     25.80s CPU     25.95s WALL (      16 calls)

     Called by *egterg:
     rdiaghg      :      0.07s CPU      0.07s WALL (      75 calls)
     h_psi        :     21.84s CPU     21.98s WALL (      76 calls)
     g_psi        :      0.06s CPU      0.06s WALL (      59 calls)

     Called by h_psi:
     h_psi:calbec :      3.04s CPU      3.05s WALL (      76 calls)
     vloc_psi     :     16.16s CPU     16.29s WALL (      76 calls)
     add_vuspsi   :      2.52s CPU      2.52s WALL (      76 calls)

     General routines
     calbec       :      3.31s CPU      3.31s WALL (      80 calls)
     fft          :      4.46s CPU      4.57s WALL (     144 calls)
     ffts         :      0.47s CPU      0.48s WALL (      16 calls)
     fftw         :     15.17s CPU     15.27s WALL (    1042 calls)

     Parallel routines

     PWSCF        :     42.42s CPU     43.27s WALL


   This run was terminated on:   5: 1:13  24May2021            

=------------------------------------------------------------------------------=
   JOB DONE.
=------------------------------------------------------------------------------=
