
     Program PWSCF v.6.7GPU starts on 24May2021 at  4:59:43 

     This program is part of the open-source Quantum ESPRESSO suite
     for quantum simulation of materials; please cite
         "P. Giannozzi et al., J. Phys.:Condens. Matter 21 395502 (2009);
         "P. Giannozzi et al., J. Phys.:Condens. Matter 29 465901 (2017);
         "P. Giannozzi et al., J. Chem. Phys. 152 154105 (2020);
          URL http://www.quantum-espresso.org", 
     in publications or presentations arising from this work. More details at
     http://www.quantum-espresso.org/quote

     Parallel version (MPI), running on     4 processors

     MPI processes distributed on     1 nodes
     R & G space division:  proc/nbgrp/npool/nimage =       4
     Waiting for input...
     Reading input from standard input
     Message from routine read_cards :
     DEPRECATED: no units specified in CELL_PARAMETERS card

     Current dimensions of program PWSCF are:
     Max number of different atomic species (ntypx) = 10
     Max number of k-points (npk) =  40000
     Max angular momentum in pseudopotentials (lmaxx) =  3

     gamma-point specific algorithms are used

     Subspace diagonalization in iterative solution of the eigenvalue problem:
     one sub-group per band group will be used
     scalapack distributed-memory algorithm (size of sub-group:  2*  2 procs)


     Parallelization info
     --------------------
     sticks:   dense  smooth     PW     G-vecs:    dense   smooth      PW
     Min        2543    2543    637               193371   193371   24241
     Max        2548    2548    642               193374   193374   24244
     Sum       10185   10185   2561               773489   773489   96969

     Using Slab Decomposition



     bravais-lattice index     =            0
     lattice parameter (alat)  =      20.0000  a.u.
     unit-cell volume          =    8000.0000 (a.u.)^3
     number of atoms/cell      =           14
     number of atomic types    =            3
     number of electrons       =        36.00
     number of Kohn-Sham states=           18
     kinetic-energy cutoff     =      80.0000  Ry
     charge density cutoff     =     320.0000  Ry
     scf convergence threshold =      1.0E-12
     mixing beta               =       0.5000
     number of iterations used =            8  plain     mixing
     Exchange-correlation= PBE
                           (   1   4   3   4   0   0   0)

     celldm(1)=  20.000000  celldm(2)=   0.000000  celldm(3)=   0.000000
     celldm(4)=   0.000000  celldm(5)=   0.000000  celldm(6)=   0.000000

     crystal axes: (cart. coord. in units of alat)
               a(1) = (   1.000000   0.000000   0.000000 )  
               a(2) = (   0.000000   1.000000   0.000000 )  
               a(3) = (   0.000000   0.000000   1.000000 )  

     reciprocal axes: (cart. coord. in units 2 pi/alat)
               b(1) = (  1.000000  0.000000  0.000000 )  
               b(2) = (  0.000000  1.000000  0.000000 )  
               b(3) = (  0.000000  0.000000  1.000000 )  


     PseudoPot. # 1 for C  read from file:
     /home/ciga/builds/pseudo_potentials/C.upf
     MD5 check sum: d80ec9912146af6c4c1760317d1f95e9
     Pseudo is Norm-conserving + core correction, Zval =  4.0
     Generated using ONCVPSP code by D. R. Hamann
     Using radial grid of 1248 points,  4 beta functions with: 
                l(1) =   0
                l(2) =   0
                l(3) =   1
                l(4) =   1

     PseudoPot. # 2 for H  read from file:
     /home/ciga/builds/pseudo_potentials/H.upf
     MD5 check sum: 418cee52d0c413ae40802e6cc37ab9e3
     Pseudo is Norm-conserving, Zval =  1.0
     Generated using ONCVPSP code by D. R. Hamann
     Using radial grid of 1166 points,  3 beta functions with: 
                l(1) =   0
                l(2) =   0
                l(3) =   1

     PseudoPot. # 3 for N  read from file:
     /home/ciga/builds/pseudo_potentials/N.upf
     MD5 check sum: ff7f9f91e4136e6855b4906c31c1cc72
     Pseudo is Norm-conserving + core correction, Zval =  5.0
     Generated using ONCVPSP code by D. R. Hamann
     Using radial grid of 1058 points,  4 beta functions with: 
                l(1) =   0
                l(2) =   0
                l(3) =   1
                l(4) =   1

     atomic species   valence    mass     pseudopotential
        C              4.00    12.01070     C ( 1.00)
        H              1.00     1.00794     H ( 1.00)
        N              5.00    14.00670     N ( 1.00)

     No symmetry found



   Cartesian axes

     site n.     atom                  positions (alat units)
         1           C   tau(   1) = (  -0.1026256  -0.0822528   0.0000000  )
         2           C   tau(   2) = (   0.0199215  -0.1300024   0.0000000  )
         3           C   tau(   3) = (   0.1225377  -0.0477496   0.0000000  )
         4           C   tau(   4) = (   0.1026255   0.0822528   0.0000000  )
         5           C   tau(   5) = (  -0.0199216   0.1299929   0.0000000  )
         6           C   tau(   6) = (  -0.1225471   0.0477402   0.0000000  )
         7           H   tau(   7) = (  -0.1826141  -0.1463074   0.0000000  )
         8           H   tau(   8) = (   0.0354305  -0.2312971   0.0000000  )
         9           H   tau(   9) = (   0.2180247  -0.0849434   0.0000000  )
        10           H   tau(  10) = (   0.1825837   0.1463451   0.0000000  )
        11           H   tau(  11) = (  -0.2180585   0.0848716   0.0000000  )
        12           N   tau(  12) = (  -0.0404875   0.2636316   0.0000000  )
        13           H   tau(  13) = (   0.0305727   0.3156470   0.0327460  )
        14           H   tau(  14) = (  -0.1253988   0.2900890   0.0315565  )

     number of k points=     1
                       cart. coord. in units 2pi/alat
        k(    1) = (   0.0000000   0.0000000   0.0000000), wk =   2.0000000

     Dense  grid:   386745 G-vectors     FFT dimensions: ( 120, 120, 120)

     Estimated max dynamical RAM per process >     110.39 MB

     Estimated total dynamical RAM >     441.55 MB

     Initial potential from superposition of free atoms

     starting charge   35.99966, renormalised to   36.00000

     negative rho (up, down):  7.094E-05 0.000E+00
     Starting wfcs are   35 randomized atomic wfcs

     total cpu time spent up to now is        2.2 secs

     Self-consistent Calculation

     iteration #  1     ecut=    80.00 Ry     beta= 0.50
     Davidson diagonalization with overlap
     ethr =  1.00E-02,  avg # of iterations =  2.0

     negative rho (up, down):  1.652E-05 0.000E+00

     total cpu time spent up to now is        4.5 secs

     total energy              =    -100.97837784 Ry
     estimated scf accuracy    <       1.71822053 Ry

     iteration #  2     ecut=    80.00 Ry     beta= 0.50
     Davidson diagonalization with overlap
     ethr =  4.77E-03,  avg # of iterations =  2.0

     negative rho (up, down):  5.521E-06 0.000E+00

     total cpu time spent up to now is        6.8 secs

     total energy              =    -101.24805153 Ry
     estimated scf accuracy    <       0.11927778 Ry

     iteration #  3     ecut=    80.00 Ry     beta= 0.50
     Davidson diagonalization with overlap
     ethr =  3.31E-04,  avg # of iterations =  2.0

     negative rho (up, down):  4.580E-07 0.000E+00

     total cpu time spent up to now is        8.7 secs

     total energy              =    -101.24874242 Ry
     estimated scf accuracy    <       0.02309130 Ry

     iteration #  4     ecut=    80.00 Ry     beta= 0.50
     Davidson diagonalization with overlap
     ethr =  6.41E-05,  avg # of iterations =  2.0

     negative rho (up, down):  7.654E-08 0.000E+00

     total cpu time spent up to now is       10.9 secs

     total energy              =    -101.25179950 Ry
     estimated scf accuracy    <       0.00175447 Ry

     iteration #  5     ecut=    80.00 Ry     beta= 0.50
     Davidson diagonalization with overlap
     ethr =  4.87E-06,  avg # of iterations =  2.0

     negative rho (up, down):  1.757E-08 0.000E+00

     total cpu time spent up to now is       13.2 secs

     total energy              =    -101.25225878 Ry
     estimated scf accuracy    <       0.00009826 Ry

     iteration #  6     ecut=    80.00 Ry     beta= 0.50
     Davidson diagonalization with overlap
     ethr =  2.73E-07,  avg # of iterations =  4.0

     total cpu time spent up to now is       15.6 secs

     total energy              =    -101.25228270 Ry
     estimated scf accuracy    <       0.00001532 Ry

     iteration #  7     ecut=    80.00 Ry     beta= 0.50
     Davidson diagonalization with overlap
     ethr =  4.25E-08,  avg # of iterations =  5.0

     total cpu time spent up to now is       18.2 secs

     total energy              =    -101.25228675 Ry
     estimated scf accuracy    <       0.00000698 Ry

     iteration #  8     ecut=    80.00 Ry     beta= 0.50
     Davidson diagonalization with overlap
     ethr =  1.94E-08,  avg # of iterations =  5.0

     total cpu time spent up to now is       20.3 secs

     total energy              =    -101.25228644 Ry
     estimated scf accuracy    <       0.00000214 Ry

     iteration #  9     ecut=    80.00 Ry     beta= 0.50
     Davidson diagonalization with overlap
     ethr =  5.96E-09,  avg # of iterations =  4.0

     total cpu time spent up to now is       22.7 secs

     total energy              =    -101.25228708 Ry
     estimated scf accuracy    <       0.00000024 Ry

     iteration # 10     ecut=    80.00 Ry     beta= 0.50
     Davidson diagonalization with overlap
     ethr =  6.61E-10,  avg # of iterations =  5.0

     total cpu time spent up to now is       25.0 secs

     total energy              =    -101.25228708 Ry
     estimated scf accuracy    <       0.00000012 Ry

     iteration # 11     ecut=    80.00 Ry     beta= 0.50
     Davidson diagonalization with overlap
     ethr =  3.38E-10,  avg # of iterations =  3.0

     total cpu time spent up to now is       27.2 secs

     total energy              =    -101.25228710 Ry
     estimated scf accuracy    <       0.00000001 Ry

     iteration # 12     ecut=    80.00 Ry     beta= 0.50
     Davidson diagonalization with overlap
     ethr =  3.64E-11,  avg # of iterations =  6.0

     total cpu time spent up to now is       30.2 secs

     total energy              =    -101.25228710 Ry
     estimated scf accuracy    <       0.00000003 Ry

     iteration # 13     ecut=    80.00 Ry     beta= 0.50
     Davidson diagonalization with overlap
     ethr =  3.64E-11,  avg # of iterations =  5.0

     total cpu time spent up to now is       32.9 secs

     total energy              =    -101.25228710 Ry
     estimated scf accuracy    <          1.8E-09 Ry

     iteration # 14     ecut=    80.00 Ry     beta= 0.50
     Davidson diagonalization with overlap
     ethr =  5.09E-12,  avg # of iterations =  5.0

     total cpu time spent up to now is       35.1 secs

     total energy              =    -101.25228710 Ry
     estimated scf accuracy    <          4.0E-10 Ry

     iteration # 15     ecut=    80.00 Ry     beta= 0.50
     Davidson diagonalization with overlap
     ethr =  1.12E-12,  avg # of iterations =  5.0

     total cpu time spent up to now is       37.6 secs

     total energy              =    -101.25228710 Ry
     estimated scf accuracy    <          5.3E-11 Ry

     iteration # 16     ecut=    80.00 Ry     beta= 0.50
     Davidson diagonalization with overlap
     ethr =  1.47E-13,  avg # of iterations =  4.0

     total cpu time spent up to now is       39.9 secs

     total energy              =    -101.25228710 Ry
     estimated scf accuracy    <          3.6E-12 Ry

     iteration # 17     ecut=    80.00 Ry     beta= 0.50
     Davidson diagonalization with overlap
     ethr =  1.00E-13,  avg # of iterations =  5.0

     total cpu time spent up to now is       42.0 secs

     total energy              =    -101.25228710 Ry
     estimated scf accuracy    <          1.2E-11 Ry

     iteration # 18     ecut=    80.00 Ry     beta= 0.50
     Davidson diagonalization with overlap
     ethr =  1.00E-13,  avg # of iterations =  2.0

     total cpu time spent up to now is       43.9 secs

     total energy              =    -101.25228710 Ry
     estimated scf accuracy    <          2.2E-12 Ry

     iteration # 19     ecut=    80.00 Ry     beta= 0.50
     Davidson diagonalization with overlap
     ethr =  1.00E-13,  avg # of iterations =  2.0

     total cpu time spent up to now is       45.7 secs

     End of self-consistent calculation

          k = 0.0000 0.0000 0.0000 ( 48485 PWs)   bands (ev):

   -22.1493 -20.1696 -17.7623 -17.3173 -14.4588 -14.0385 -12.2948 -11.9551
   -10.9010  -9.8730  -9.8325  -9.5032  -8.7358  -7.8445  -7.5503  -6.8326
    -5.5837  -4.4024

     highest occupied level (ev):    -4.4024

!    total energy              =    -101.25228710 Ry
     estimated scf accuracy    <          4.3E-14 Ry

     The total energy is the sum of the following terms:
     one-electron contribution =    -348.76202617 Ry
     hartree contribution      =     179.48467160 Ry
     xc contribution           =     -36.76860327 Ry
     ewald contribution        =     104.79367074 Ry

     convergence has been achieved in  19 iterations

     Forces acting on atoms (cartesian axes, Ry/au):

     atom    1 type  1   force =     0.00159094    0.00567809   -0.00137494
     atom    2 type  1   force =     0.00194501   -0.01334427    0.00008943
     atom    3 type  1   force =    -0.00306417    0.00500459   -0.00127848
     atom    4 type  1   force =     0.01343707   -0.01073436   -0.00170061
     atom    5 type  1   force =    -0.00882237    0.06841823    0.00943902
     atom    6 type  1   force =    -0.00953246   -0.01420724   -0.00177803
     atom    7 type  2   force =    -0.00528598   -0.00284863    0.00014486
     atom    8 type  2   force =     0.00090867   -0.00561438    0.00006446
     atom    9 type  2   force =     0.00591978   -0.00110306    0.00016992
     atom   10 type  2   force =     0.00520399    0.00545677    0.00023058
     atom   11 type  2   force =    -0.00667520    0.00378978    0.00029037
     atom   12 type  3   force =     0.00105896   -0.06676468   -0.02490829
     atom   13 type  2   force =     0.02163058    0.01683821    0.01197942
     atom   14 type  2   force =    -0.01831481    0.00943095    0.00863229

     Total force =     0.111313     Total SCF correction =     0.000000

     Writing output data file ./Aniline.save/

     init_run     :      1.98s CPU      2.07s WALL (       1 calls)
     electrons    :     42.83s CPU     43.54s WALL (       1 calls)
     forces       :      1.20s CPU      1.25s WALL (       1 calls)

     Called by init_run:
     wfcinit      :      0.98s CPU      1.00s WALL (       1 calls)
     potinit      :      0.59s CPU      0.65s WALL (       1 calls)
     hinit0       :      0.26s CPU      0.27s WALL (       1 calls)

     Called by electrons:
     c_bands      :     28.21s CPU     28.40s WALL (      19 calls)
     sum_band     :      5.20s CPU      5.24s WALL (      19 calls)
     v_of_rho     :      7.35s CPU      7.85s WALL (      20 calls)
     mix_rho      :      2.20s CPU      2.22s WALL (      19 calls)

     Called by c_bands:
     init_us_2    :      0.35s CPU      0.37s WALL (      39 calls)
     regterg      :     27.76s CPU     27.94s WALL (      19 calls)

     Called by *egterg:
     rdiaghg      :      0.08s CPU      0.08s WALL (      89 calls)
     h_psi        :     23.71s CPU     23.88s WALL (      90 calls)
     g_psi        :      0.06s CPU      0.06s WALL (      70 calls)

     Called by h_psi:
     h_psi:calbec :      3.11s CPU      3.12s WALL (      90 calls)
     vloc_psi     :     17.90s CPU     18.05s WALL (      90 calls)
     add_vuspsi   :      2.58s CPU      2.58s WALL (      90 calls)

     General routines
     calbec       :      3.34s CPU      3.35s WALL (      94 calls)
     fft          :      5.00s CPU      5.10s WALL (     168 calls)
     ffts         :      0.54s CPU      0.54s WALL (      19 calls)
     fftw         :     16.78s CPU     16.91s WALL (    1197 calls)

     Parallel routines

     PWSCF        :     46.13s CPU     47.03s WALL


   This run was terminated on:   5: 0:30  24May2021            

=------------------------------------------------------------------------------=
   JOB DONE.
=------------------------------------------------------------------------------=
