
     Program PWSCF v.6.7GPU starts on 24May2021 at  1:13:47 

     This program is part of the open-source Quantum ESPRESSO suite
     for quantum simulation of materials; please cite
         "P. Giannozzi et al., J. Phys.:Condens. Matter 21 395502 (2009);
         "P. Giannozzi et al., J. Phys.:Condens. Matter 29 465901 (2017);
         "P. Giannozzi et al., J. Chem. Phys. 152 154105 (2020);
          URL http://www.quantum-espresso.org", 
     in publications or presentations arising from this work. More details at
     http://www.quantum-espresso.org/quote

     Parallel version (MPI), running on     4 processors

     MPI processes distributed on     1 nodes
     R & G space division:  proc/nbgrp/npool/nimage =       4
     Waiting for input...
     Reading input from standard input
     Message from routine read_cards :
     DEPRECATED: no units specified in CELL_PARAMETERS card

     Current dimensions of program PWSCF are:
     Max number of different atomic species (ntypx) = 10
     Max number of k-points (npk) =  40000
     Max angular momentum in pseudopotentials (lmaxx) =  3

     gamma-point specific algorithms are used

     Subspace diagonalization in iterative solution of the eigenvalue problem:
     one sub-group per band group will be used
     scalapack distributed-memory algorithm (size of sub-group:  2*  2 procs)


     Parallelization info
     --------------------
     sticks:   dense  smooth     PW     G-vecs:    dense   smooth      PW
     Min        2069    2069    518               141623   141623   17686
     Max        2072    2072    520               141628   141628   17689
     Sum        8285    8285   2077               566507   566507   70751

     Using Slab Decomposition



     bravais-lattice index     =            0
     lattice parameter (alat)  =      20.0000  a.u.
     unit-cell volume          =    8000.0000 (a.u.)^3
     number of atoms/cell      =           14
     number of atomic types    =            2
     number of electrons       =        26.00
     number of Kohn-Sham states=           13
     kinetic-energy cutoff     =      65.0000  Ry
     charge density cutoff     =     260.0000  Ry
     scf convergence threshold =      1.0E-12
     mixing beta               =       0.5000
     number of iterations used =            8  plain     mixing
     Exchange-correlation= PBE
                           (   1   4   3   4   0   0   0)

     celldm(1)=  20.000000  celldm(2)=   0.000000  celldm(3)=   0.000000
     celldm(4)=   0.000000  celldm(5)=   0.000000  celldm(6)=   0.000000

     crystal axes: (cart. coord. in units of alat)
               a(1) = (   1.000000   0.000000   0.000000 )  
               a(2) = (   0.000000   1.000000   0.000000 )  
               a(3) = (   0.000000   0.000000   1.000000 )  

     reciprocal axes: (cart. coord. in units 2 pi/alat)
               b(1) = (  1.000000  0.000000  0.000000 )  
               b(2) = (  0.000000  1.000000  0.000000 )  
               b(3) = (  0.000000  0.000000  1.000000 )  


     PseudoPot. # 1 for C  read from file:
     /home/ciga/builds/pseudo_potentials/C.upf
     MD5 check sum: d80ec9912146af6c4c1760317d1f95e9
     Pseudo is Norm-conserving + core correction, Zval =  4.0
     Generated using ONCVPSP code by D. R. Hamann
     Using radial grid of 1248 points,  4 beta functions with: 
                l(1) =   0
                l(2) =   0
                l(3) =   1
                l(4) =   1

     PseudoPot. # 2 for H  read from file:
     /home/ciga/builds/pseudo_potentials/H.upf
     MD5 check sum: 418cee52d0c413ae40802e6cc37ab9e3
     Pseudo is Norm-conserving, Zval =  1.0
     Generated using ONCVPSP code by D. R. Hamann
     Using radial grid of 1166 points,  3 beta functions with: 
                l(1) =   0
                l(2) =   0
                l(3) =   1

     atomic species   valence    mass     pseudopotential
        C              4.00    12.01070     C ( 1.00)
        H              1.00     1.00794     H ( 1.00)

     No symmetry found



   Cartesian axes

     site n.     atom                  positions (alat units)
         1           C   tau(   1) = (  -0.0538477   0.0001013  -0.0482474  )
         2           C   tau(   2) = (  -0.1849512  -0.0000971   0.0123790  )
         3           C   tau(   3) = (   0.0538490   0.0001009   0.0482523  )
         4           H   tau(   4) = (  -0.1986090  -0.0840791   0.0720042  )
         5           H   tau(   5) = (  -0.1985342   0.0833947   0.0727081  )
         6           H   tau(   6) = (  -0.2602361   0.0002431  -0.0590752  )
         7           H   tau(   7) = (  -0.0438729  -0.0829300  -0.1103678  )
         8           H   tau(   8) = (  -0.0440152   0.0833250  -0.1101304  )
         9           H   tau(   9) = (   0.0440164   0.0833191   0.1101411  )
        10           H   tau(  10) = (   0.0438795  -0.0829346   0.1103664  )
        11           C   tau(  11) = (   0.1849499  -0.0000971  -0.0123831  )
        12           H   tau(  12) = (   0.2602422   0.0006557   0.0590606  )
        13           H   tau(  13) = (   0.1987544  -0.0842815  -0.0716874  )
        14           H   tau(  14) = (   0.1983749   0.0831906  -0.0730295  )

     number of k points=     1
                       cart. coord. in units 2pi/alat
        k(    1) = (   0.0000000   0.0000000   0.0000000), wk =   2.0000000

     Dense  grid:   283254 G-vectors     FFT dimensions: ( 108, 108, 108)

     Estimated max dynamical RAM per process >      73.83 MB

     Estimated total dynamical RAM >     295.33 MB

     Initial potential from superposition of free atoms

     starting charge   25.99973, renormalised to   26.00000

     negative rho (up, down):  1.908E-04 0.000E+00
     Starting wfcs are   26 randomized atomic wfcs

     total cpu time spent up to now is        1.4 secs

     Self-consistent Calculation

     iteration #  1     ecut=    65.00 Ry     beta= 0.50
     Davidson diagonalization with overlap
     ethr =  1.00E-02,  avg # of iterations =  2.0

     negative rho (up, down):  7.399E-05 0.000E+00

     total cpu time spent up to now is        2.8 secs

     total energy              =     -59.76203819 Ry
     estimated scf accuracy    <       1.67803792 Ry

     iteration #  2     ecut=    65.00 Ry     beta= 0.50
     Davidson diagonalization with overlap
     ethr =  6.45E-03,  avg # of iterations =  2.0

     negative rho (up, down):  3.076E-05 0.000E+00

     total cpu time spent up to now is        4.3 secs

     total energy              =     -60.06118357 Ry
     estimated scf accuracy    <       0.12164288 Ry

     iteration #  3     ecut=    65.00 Ry     beta= 0.50
     Davidson diagonalization with overlap
     ethr =  4.68E-04,  avg # of iterations =  1.0

     negative rho (up, down):  1.639E-06 0.000E+00

     total cpu time spent up to now is        5.5 secs

     total energy              =     -60.05263592 Ry
     estimated scf accuracy    <       0.02869475 Ry

     iteration #  4     ecut=    65.00 Ry     beta= 0.50
     Davidson diagonalization with overlap
     ethr =  1.10E-04,  avg # of iterations =  2.0

     negative rho (up, down):  8.498E-07 0.000E+00

     total cpu time spent up to now is        6.9 secs

     total energy              =     -60.05550960 Ry
     estimated scf accuracy    <       0.00436871 Ry

     iteration #  5     ecut=    65.00 Ry     beta= 0.50
     Davidson diagonalization with overlap
     ethr =  1.68E-05,  avg # of iterations =  2.0

     negative rho (up, down):  2.904E-08 0.000E+00

     total cpu time spent up to now is        8.4 secs

     total energy              =     -60.05658638 Ry
     estimated scf accuracy    <       0.00138021 Ry

     iteration #  6     ecut=    65.00 Ry     beta= 0.50
     Davidson diagonalization with overlap
     ethr =  5.31E-06,  avg # of iterations =  2.0

     total cpu time spent up to now is        9.9 secs

     total energy              =     -60.05697728 Ry
     estimated scf accuracy    <       0.00034334 Ry

     iteration #  7     ecut=    65.00 Ry     beta= 0.50
     Davidson diagonalization with overlap
     ethr =  1.32E-06,  avg # of iterations =  2.0

     total cpu time spent up to now is       11.3 secs

     total energy              =     -60.05703044 Ry
     estimated scf accuracy    <       0.00000398 Ry

     iteration #  8     ecut=    65.00 Ry     beta= 0.50
     Davidson diagonalization with overlap
     ethr =  1.53E-08,  avg # of iterations =  4.0

     total cpu time spent up to now is       13.2 secs

     total energy              =     -60.05703509 Ry
     estimated scf accuracy    <       0.00000319 Ry

     iteration #  9     ecut=    65.00 Ry     beta= 0.50
     Davidson diagonalization with overlap
     ethr =  1.23E-08,  avg # of iterations =  1.0

     total cpu time spent up to now is       14.4 secs

     total energy              =     -60.05703439 Ry
     estimated scf accuracy    <       0.00000132 Ry

     iteration # 10     ecut=    65.00 Ry     beta= 0.50
     Davidson diagonalization with overlap
     ethr =  5.07E-09,  avg # of iterations =  2.0

     total cpu time spent up to now is       15.9 secs

     total energy              =     -60.05703486 Ry
     estimated scf accuracy    <       0.00000011 Ry

     iteration # 11     ecut=    65.00 Ry     beta= 0.50
     Davidson diagonalization with overlap
     ethr =  4.14E-10,  avg # of iterations =  1.0

     total cpu time spent up to now is       17.0 secs

     total energy              =     -60.05703485 Ry
     estimated scf accuracy    <       0.00000004 Ry

     iteration # 12     ecut=    65.00 Ry     beta= 0.50
     Davidson diagonalization with overlap
     ethr =  1.51E-10,  avg # of iterations =  2.0

     total cpu time spent up to now is       18.5 secs

     total energy              =     -60.05703485 Ry
     estimated scf accuracy    <          1.0E-09 Ry

     iteration # 13     ecut=    65.00 Ry     beta= 0.50
     Davidson diagonalization with overlap
     ethr =  3.98E-12,  avg # of iterations =  2.0

     total cpu time spent up to now is       19.9 secs

     total energy              =     -60.05703485 Ry
     estimated scf accuracy    <          1.3E-09 Ry

     iteration # 14     ecut=    65.00 Ry     beta= 0.50
     Davidson diagonalization with overlap
     ethr =  3.98E-12,  avg # of iterations =  2.0

     total cpu time spent up to now is       21.4 secs

     total energy              =     -60.05703485 Ry
     estimated scf accuracy    <          2.4E-11 Ry

     iteration # 15     ecut=    65.00 Ry     beta= 0.50
     Davidson diagonalization with overlap
     ethr =  1.00E-13,  avg # of iterations =  3.0

     total cpu time spent up to now is       23.0 secs

     total energy              =     -60.05703485 Ry
     estimated scf accuracy    <          2.9E-11 Ry

     iteration # 16     ecut=    65.00 Ry     beta= 0.50
     Davidson diagonalization with overlap
     ethr =  1.00E-13,  avg # of iterations =  1.0

     total cpu time spent up to now is       24.2 secs

     total energy              =     -60.05703485 Ry
     estimated scf accuracy    <          1.1E-11 Ry

     iteration # 17     ecut=    65.00 Ry     beta= 0.50
     Davidson diagonalization with overlap
     ethr =  1.00E-13,  avg # of iterations =  2.0

     total cpu time spent up to now is       25.5 secs

     End of self-consistent calculation

          k = 0.0000 0.0000 0.0000 ( 35376 PWs)   bands (ev):

   -19.1422 -17.3352 -14.9412 -13.5643 -10.9173  -9.8613  -9.7136  -9.4286
    -8.3627  -7.8567  -7.5474  -7.2156  -7.1250

     highest occupied level (ev):    -7.1250

!    total energy              =     -60.05703485 Ry
     estimated scf accuracy    <          1.9E-13 Ry

     The total energy is the sum of the following terms:
     one-electron contribution =    -203.45352233 Ry
     hartree contribution      =     105.21821706 Ry
     xc contribution           =     -24.32801491 Ry
     ewald contribution        =      62.50628533 Ry

     convergence has been achieved in  17 iterations

     Forces acting on atoms (cartesian axes, Ry/au):

     atom    1 type  1   force =     0.00019542   -0.00002085   -0.00179120
     atom    2 type  1   force =    -0.00152850    0.00000762    0.00049672
     atom    3 type  1   force =    -0.00018347    0.00001170    0.00177502
     atom    4 type  2   force =     0.00018069    0.00056872   -0.00038488
     atom    5 type  2   force =     0.00017884   -0.00054608   -0.00041515
     atom    6 type  2   force =     0.00059948   -0.00003044    0.00056405
     atom    7 type  2   force =    -0.00016004    0.00054448    0.00037544
     atom    8 type  2   force =    -0.00015374   -0.00055738    0.00034655
     atom    9 type  2   force =     0.00015193   -0.00053181   -0.00035752
     atom   10 type  2   force =     0.00015926    0.00055136   -0.00035470
     atom   11 type  1   force =     0.00152351    0.00001402   -0.00048223
     atom   12 type  2   force =    -0.00060662   -0.00006831   -0.00056038
     atom   13 type  2   force =    -0.00019035    0.00059007    0.00035663
     atom   14 type  2   force =    -0.00016640   -0.00053311    0.00043166

     Total force =     0.004093     Total SCF correction =     0.000001

     Writing output data file ./Buthane.save/

     init_run     :      1.20s CPU      1.29s WALL (       1 calls)
     electrons    :     23.63s CPU     24.15s WALL (       1 calls)
     forces       :      0.80s CPU      0.81s WALL (       1 calls)

     Called by init_run:
     wfcinit      :      0.55s CPU      0.57s WALL (       1 calls)
     potinit      :      0.40s CPU      0.45s WALL (       1 calls)
     hinit0       :      0.15s CPU      0.17s WALL (       1 calls)

     Called by electrons:
     c_bands      :     14.14s CPU     14.27s WALL (      17 calls)
     sum_band     :      3.19s CPU      3.21s WALL (      17 calls)
     v_of_rho     :      4.97s CPU      5.35s WALL (      18 calls)
     mix_rho      :      1.42s CPU      1.43s WALL (      17 calls)

     Called by c_bands:
     init_us_2    :      0.21s CPU      0.22s WALL (      35 calls)
     regterg      :     13.88s CPU     14.01s WALL (      17 calls)

     Called by *egterg:
     rdiaghg      :      0.04s CPU      0.04s WALL (      50 calls)
     h_psi        :     12.83s CPU     12.95s WALL (      51 calls)
     g_psi        :      0.03s CPU      0.03s WALL (      33 calls)

     Called by h_psi:
     h_psi:calbec :      1.37s CPU      1.37s WALL (      51 calls)
     vloc_psi     :     10.31s CPU     10.42s WALL (      51 calls)
     add_vuspsi   :      1.09s CPU      1.09s WALL (      51 calls)

     General routines
     calbec       :      1.48s CPU      1.48s WALL (      55 calls)
     fft          :      3.60s CPU      3.67s WALL (     152 calls)
     ffts         :      0.42s CPU      0.42s WALL (      17 calls)
     fftw         :     10.15s CPU     10.22s WALL (     803 calls)

     Parallel routines

     PWSCF        :     25.71s CPU     26.36s WALL


   This run was terminated on:   1:14:13  24May2021            

=------------------------------------------------------------------------------=
   JOB DONE.
=------------------------------------------------------------------------------=
