
     Program PWSCF v.6.7GPU starts on 24May2021 at  1:12:53 

     This program is part of the open-source Quantum ESPRESSO suite
     for quantum simulation of materials; please cite
         "P. Giannozzi et al., J. Phys.:Condens. Matter 21 395502 (2009);
         "P. Giannozzi et al., J. Phys.:Condens. Matter 29 465901 (2017);
         "P. Giannozzi et al., J. Chem. Phys. 152 154105 (2020);
          URL http://www.quantum-espresso.org", 
     in publications or presentations arising from this work. More details at
     http://www.quantum-espresso.org/quote

     Parallel version (MPI), running on     4 processors

     MPI processes distributed on     1 nodes
     R & G space division:  proc/nbgrp/npool/nimage =       4
     Waiting for input...
     Reading input from standard input
     Message from routine read_cards :
     DEPRECATED: no units specified in CELL_PARAMETERS card

     Current dimensions of program PWSCF are:
     Max number of different atomic species (ntypx) = 10
     Max number of k-points (npk) =  40000
     Max angular momentum in pseudopotentials (lmaxx) =  3

     gamma-point specific algorithms are used

     Subspace diagonalization in iterative solution of the eigenvalue problem:
     one sub-group per band group will be used
     scalapack distributed-memory algorithm (size of sub-group:  2*  2 procs)


     Parallelization info
     --------------------
     sticks:   dense  smooth     PW     G-vecs:    dense   smooth      PW
     Min        1591    1591    398                95580    95580   11954
     Max        1594    1594    400                95582    95582   11960
     Sum        6369    6369   1597               382323   382323   47833

     Using Slab Decomposition



     bravais-lattice index     =            0
     lattice parameter (alat)  =      20.0000  a.u.
     unit-cell volume          =    8000.0000 (a.u.)^3
     number of atoms/cell      =           14
     number of atomic types    =            2
     number of electrons       =        26.00
     number of Kohn-Sham states=           13
     kinetic-energy cutoff     =      50.0000  Ry
     charge density cutoff     =     200.0000  Ry
     scf convergence threshold =      1.0E-12
     mixing beta               =       0.5000
     number of iterations used =            8  plain     mixing
     Exchange-correlation= PBE
                           (   1   4   3   4   0   0   0)

     celldm(1)=  20.000000  celldm(2)=   0.000000  celldm(3)=   0.000000
     celldm(4)=   0.000000  celldm(5)=   0.000000  celldm(6)=   0.000000

     crystal axes: (cart. coord. in units of alat)
               a(1) = (   1.000000   0.000000   0.000000 )  
               a(2) = (   0.000000   1.000000   0.000000 )  
               a(3) = (   0.000000   0.000000   1.000000 )  

     reciprocal axes: (cart. coord. in units 2 pi/alat)
               b(1) = (  1.000000  0.000000  0.000000 )  
               b(2) = (  0.000000  1.000000  0.000000 )  
               b(3) = (  0.000000  0.000000  1.000000 )  


     PseudoPot. # 1 for C  read from file:
     /home/ciga/builds/pseudo_potentials/C.upf
     MD5 check sum: d80ec9912146af6c4c1760317d1f95e9
     Pseudo is Norm-conserving + core correction, Zval =  4.0
     Generated using ONCVPSP code by D. R. Hamann
     Using radial grid of 1248 points,  4 beta functions with: 
                l(1) =   0
                l(2) =   0
                l(3) =   1
                l(4) =   1

     PseudoPot. # 2 for H  read from file:
     /home/ciga/builds/pseudo_potentials/H.upf
     MD5 check sum: 418cee52d0c413ae40802e6cc37ab9e3
     Pseudo is Norm-conserving, Zval =  1.0
     Generated using ONCVPSP code by D. R. Hamann
     Using radial grid of 1166 points,  3 beta functions with: 
                l(1) =   0
                l(2) =   0
                l(3) =   1

     atomic species   valence    mass     pseudopotential
        C              4.00    12.01070     C ( 1.00)
        H              1.00     1.00794     H ( 1.00)

     No symmetry found



   Cartesian axes

     site n.     atom                  positions (alat units)
         1           C   tau(   1) = (  -0.0538477   0.0001013  -0.0482474  )
         2           C   tau(   2) = (  -0.1849512  -0.0000971   0.0123790  )
         3           C   tau(   3) = (   0.0538490   0.0001009   0.0482523  )
         4           H   tau(   4) = (  -0.1986090  -0.0840791   0.0720042  )
         5           H   tau(   5) = (  -0.1985342   0.0833947   0.0727081  )
         6           H   tau(   6) = (  -0.2602361   0.0002431  -0.0590752  )
         7           H   tau(   7) = (  -0.0438729  -0.0829300  -0.1103678  )
         8           H   tau(   8) = (  -0.0440152   0.0833250  -0.1101304  )
         9           H   tau(   9) = (   0.0440164   0.0833191   0.1101411  )
        10           H   tau(  10) = (   0.0438795  -0.0829346   0.1103664  )
        11           C   tau(  11) = (   0.1849499  -0.0000971  -0.0123831  )
        12           H   tau(  12) = (   0.2602422   0.0006557   0.0590606  )
        13           H   tau(  13) = (   0.1987544  -0.0842815  -0.0716874  )
        14           H   tau(  14) = (   0.1983749   0.0831906  -0.0730295  )

     number of k points=     1
                       cart. coord. in units 2pi/alat
        k(    1) = (   0.0000000   0.0000000   0.0000000), wk =   2.0000000

     Dense  grid:   191162 G-vectors     FFT dimensions: (  96,  96,  96)

     Estimated max dynamical RAM per process >      50.57 MB

     Estimated total dynamical RAM >     202.29 MB

     Initial potential from superposition of free atoms

     starting charge   25.99973, renormalised to   26.00000

     negative rho (up, down):  7.805E-04 0.000E+00
     Starting wfcs are   26 randomized atomic wfcs

     total cpu time spent up to now is        0.9 secs

     Self-consistent Calculation

     iteration #  1     ecut=    50.00 Ry     beta= 0.50
     Davidson diagonalization with overlap
     ethr =  1.00E-02,  avg # of iterations =  2.0

     negative rho (up, down):  3.505E-04 0.000E+00

     total cpu time spent up to now is        1.8 secs

     total energy              =     -59.71842053 Ry
     estimated scf accuracy    <       1.64427572 Ry

     iteration #  2     ecut=    50.00 Ry     beta= 0.50
     Davidson diagonalization with overlap
     ethr =  6.32E-03,  avg # of iterations =  2.0

     negative rho (up, down):  1.600E-04 0.000E+00

     total cpu time spent up to now is        2.7 secs

     total energy              =     -60.00738550 Ry
     estimated scf accuracy    <       0.12033649 Ry

     iteration #  3     ecut=    50.00 Ry     beta= 0.50
     Davidson diagonalization with overlap
     ethr =  4.63E-04,  avg # of iterations =  1.0

     negative rho (up, down):  7.120E-06 0.000E+00

     total cpu time spent up to now is        3.4 secs

     total energy              =     -59.99893415 Ry
     estimated scf accuracy    <       0.02812704 Ry

     iteration #  4     ecut=    50.00 Ry     beta= 0.50
     Davidson diagonalization with overlap
     ethr =  1.08E-04,  avg # of iterations =  2.0

     negative rho (up, down):  4.110E-06 0.000E+00

     total cpu time spent up to now is        4.2 secs

     total energy              =     -60.00175839 Ry
     estimated scf accuracy    <       0.00417241 Ry

     iteration #  5     ecut=    50.00 Ry     beta= 0.50
     Davidson diagonalization with overlap
     ethr =  1.60E-05,  avg # of iterations =  2.0

     negative rho (up, down):  2.516E-08 0.000E+00

     total cpu time spent up to now is        5.1 secs

     total energy              =     -60.00278181 Ry
     estimated scf accuracy    <       0.00129995 Ry

     iteration #  6     ecut=    50.00 Ry     beta= 0.50
     Davidson diagonalization with overlap
     ethr =  5.00E-06,  avg # of iterations =  2.0

     total cpu time spent up to now is        6.0 secs

     total energy              =     -60.00314753 Ry
     estimated scf accuracy    <       0.00033913 Ry

     iteration #  7     ecut=    50.00 Ry     beta= 0.50
     Davidson diagonalization with overlap
     ethr =  1.30E-06,  avg # of iterations =  2.0

     total cpu time spent up to now is        6.9 secs

     total energy              =     -60.00320180 Ry
     estimated scf accuracy    <       0.00000313 Ry

     iteration #  8     ecut=    50.00 Ry     beta= 0.50
     Davidson diagonalization with overlap
     ethr =  1.20E-08,  avg # of iterations =  4.0

     total cpu time spent up to now is        8.0 secs

     total energy              =     -60.00320586 Ry
     estimated scf accuracy    <       0.00000291 Ry

     iteration #  9     ecut=    50.00 Ry     beta= 0.50
     Davidson diagonalization with overlap
     ethr =  1.12E-08,  avg # of iterations =  1.0

     total cpu time spent up to now is        8.7 secs

     total energy              =     -60.00320525 Ry
     estimated scf accuracy    <       0.00000112 Ry

     iteration # 10     ecut=    50.00 Ry     beta= 0.50
     Davidson diagonalization with overlap
     ethr =  4.31E-09,  avg # of iterations =  2.0

     total cpu time spent up to now is        9.6 secs

     total energy              =     -60.00320566 Ry
     estimated scf accuracy    <       0.00000012 Ry

     iteration # 11     ecut=    50.00 Ry     beta= 0.50
     Davidson diagonalization with overlap
     ethr =  4.78E-10,  avg # of iterations =  1.0

     total cpu time spent up to now is       10.4 secs

     total energy              =     -60.00320565 Ry
     estimated scf accuracy    <       0.00000003 Ry

     iteration # 12     ecut=    50.00 Ry     beta= 0.50
     Davidson diagonalization with overlap
     ethr =  1.11E-10,  avg # of iterations =  2.0

     total cpu time spent up to now is       11.2 secs

     total energy              =     -60.00320566 Ry
     estimated scf accuracy    <          4.4E-10 Ry

     iteration # 13     ecut=    50.00 Ry     beta= 0.50
     Davidson diagonalization with overlap
     ethr =  1.68E-12,  avg # of iterations =  5.0

     total cpu time spent up to now is       12.2 secs

     total energy              =     -60.00320566 Ry
     estimated scf accuracy    <          2.9E-10 Ry

     iteration # 14     ecut=    50.00 Ry     beta= 0.50
     Davidson diagonalization with overlap
     ethr =  1.10E-12,  avg # of iterations =  2.0

     total cpu time spent up to now is       13.1 secs

     total energy              =     -60.00320566 Ry
     estimated scf accuracy    <          2.6E-11 Ry

     iteration # 15     ecut=    50.00 Ry     beta= 0.50
     Davidson diagonalization with overlap
     ethr =  1.00E-13,  avg # of iterations =  3.0

     total cpu time spent up to now is       14.0 secs

     total energy              =     -60.00320566 Ry
     estimated scf accuracy    <          2.6E-11 Ry

     iteration # 16     ecut=    50.00 Ry     beta= 0.50
     Davidson diagonalization with overlap
     ethr =  1.00E-13,  avg # of iterations =  1.0

     total cpu time spent up to now is       14.8 secs

     total energy              =     -60.00320566 Ry
     estimated scf accuracy    <          8.5E-12 Ry

     iteration # 17     ecut=    50.00 Ry     beta= 0.50
     Davidson diagonalization with overlap
     ethr =  1.00E-13,  avg # of iterations =  2.0

     total cpu time spent up to now is       15.5 secs

     End of self-consistent calculation

          k = 0.0000 0.0000 0.0000 ( 23917 PWs)   bands (ev):

   -19.1725 -17.3627 -14.9644 -13.5814 -10.9185  -9.8619  -9.7162  -9.4272
    -8.3606  -7.8524  -7.5474  -7.2138  -7.1200

     highest occupied level (ev):    -7.1200

!    total energy              =     -60.00320566 Ry
     estimated scf accuracy    <          1.7E-13 Ry

     The total energy is the sum of the following terms:
     one-electron contribution =    -203.35960179 Ry
     hartree contribution      =     105.15737706 Ry
     xc contribution           =     -24.30726624 Ry
     ewald contribution        =      62.50628531 Ry

     convergence has been achieved in  17 iterations

     Forces acting on atoms (cartesian axes, Ry/au):

     atom    1 type  1   force =    -0.00055224   -0.00002418    0.00095534
     atom    2 type  1   force =     0.00048688    0.00001038   -0.00062781
     atom    3 type  1   force =     0.00056452    0.00000872   -0.00097156
     atom    4 type  2   force =     0.00014257    0.00005855   -0.00007540
     atom    5 type  2   force =     0.00014059   -0.00003948   -0.00010271
     atom    6 type  2   force =     0.00026891   -0.00002718    0.00016238
     atom    7 type  2   force =    -0.00012427    0.00001260    0.00010073
     atom    8 type  2   force =    -0.00011868   -0.00002461    0.00007385
     atom    9 type  2   force =     0.00011681    0.00000060   -0.00008510
     atom   10 type  2   force =     0.00012364    0.00001947   -0.00007990
     atom   11 type  1   force =    -0.00049241    0.00001678    0.00064247
     atom   12 type  2   force =    -0.00027582   -0.00006138   -0.00015867
     atom   13 type  2   force =    -0.00015205    0.00007817    0.00004825
     atom   14 type  2   force =    -0.00012844   -0.00002843    0.00011814

     Total force =     0.002046     Total SCF correction =     0.000000

     Writing output data file ./Buthane.save/

     init_run     :      0.78s CPU      0.84s WALL (       1 calls)
     electrons    :     14.26s CPU     14.58s WALL (       1 calls)
     forces       :      0.54s CPU      0.55s WALL (       1 calls)

     Called by init_run:
     wfcinit      :      0.31s CPU      0.32s WALL (       1 calls)
     potinit      :      0.29s CPU      0.33s WALL (       1 calls)
     hinit0       :      0.12s CPU      0.13s WALL (       1 calls)

     Called by electrons:
     c_bands      :      8.18s CPU      8.23s WALL (      17 calls)
     sum_band     :      1.95s CPU      1.96s WALL (      17 calls)
     v_of_rho     :      3.33s CPU      3.60s WALL (      18 calls)
     mix_rho      :      0.87s CPU      0.87s WALL (      17 calls)

     Called by c_bands:
     init_us_2    :      0.14s CPU      0.14s WALL (      35 calls)
     regterg      :      8.00s CPU      8.05s WALL (      17 calls)

     Called by *egterg:
     rdiaghg      :      0.04s CPU      0.04s WALL (      53 calls)
     h_psi        :      7.29s CPU      7.34s WALL (      54 calls)
     g_psi        :      0.02s CPU      0.02s WALL (      36 calls)

     Called by h_psi:
     h_psi:calbec :      0.93s CPU      0.94s WALL (      54 calls)
     vloc_psi     :      5.57s CPU      5.62s WALL (      54 calls)
     add_vuspsi   :      0.74s CPU      0.75s WALL (      54 calls)

     General routines
     calbec       :      1.00s CPU      1.01s WALL (      58 calls)
     fft          :      2.28s CPU      2.33s WALL (     152 calls)
     ffts         :      0.26s CPU      0.26s WALL (      17 calls)
     fftw         :      5.16s CPU      5.20s WALL (     809 calls)

     Parallel routines

     PWSCF        :     15.64s CPU     16.05s WALL


   This run was terminated on:   1:13: 9  24May2021            

=------------------------------------------------------------------------------=
   JOB DONE.
=------------------------------------------------------------------------------=
