
     Program PWSCF v.6.7GPU starts on 24May2021 at  1:13:10 

     This program is part of the open-source Quantum ESPRESSO suite
     for quantum simulation of materials; please cite
         "P. Giannozzi et al., J. Phys.:Condens. Matter 21 395502 (2009);
         "P. Giannozzi et al., J. Phys.:Condens. Matter 29 465901 (2017);
         "P. Giannozzi et al., J. Chem. Phys. 152 154105 (2020);
          URL http://www.quantum-espresso.org", 
     in publications or presentations arising from this work. More details at
     http://www.quantum-espresso.org/quote

     Parallel version (MPI), running on     4 processors

     MPI processes distributed on     1 nodes
     R & G space division:  proc/nbgrp/npool/nimage =       4
     Waiting for input...
     Reading input from standard input
     Message from routine read_cards :
     DEPRECATED: no units specified in CELL_PARAMETERS card

     Current dimensions of program PWSCF are:
     Max number of different atomic species (ntypx) = 10
     Max number of k-points (npk) =  40000
     Max angular momentum in pseudopotentials (lmaxx) =  3

     gamma-point specific algorithms are used

     Subspace diagonalization in iterative solution of the eigenvalue problem:
     one sub-group per band group will be used
     scalapack distributed-memory algorithm (size of sub-group:  2*  2 procs)


     Parallelization info
     --------------------
     sticks:   dense  smooth     PW     G-vecs:    dense   smooth      PW
     Min        1753    1753    438               110351   110351   13793
     Max        1756    1756    440               110356   110356   13796
     Sum        7017    7017   1757               441415   441415   55179

     Using Slab Decomposition



     bravais-lattice index     =            0
     lattice parameter (alat)  =      20.0000  a.u.
     unit-cell volume          =    8000.0000 (a.u.)^3
     number of atoms/cell      =           14
     number of atomic types    =            2
     number of electrons       =        26.00
     number of Kohn-Sham states=           13
     kinetic-energy cutoff     =      55.0000  Ry
     charge density cutoff     =     220.0000  Ry
     scf convergence threshold =      1.0E-12
     mixing beta               =       0.5000
     number of iterations used =            8  plain     mixing
     Exchange-correlation= PBE
                           (   1   4   3   4   0   0   0)

     celldm(1)=  20.000000  celldm(2)=   0.000000  celldm(3)=   0.000000
     celldm(4)=   0.000000  celldm(5)=   0.000000  celldm(6)=   0.000000

     crystal axes: (cart. coord. in units of alat)
               a(1) = (   1.000000   0.000000   0.000000 )  
               a(2) = (   0.000000   1.000000   0.000000 )  
               a(3) = (   0.000000   0.000000   1.000000 )  

     reciprocal axes: (cart. coord. in units 2 pi/alat)
               b(1) = (  1.000000  0.000000  0.000000 )  
               b(2) = (  0.000000  1.000000  0.000000 )  
               b(3) = (  0.000000  0.000000  1.000000 )  


     PseudoPot. # 1 for C  read from file:
     /home/ciga/builds/pseudo_potentials/C.upf
     MD5 check sum: d80ec9912146af6c4c1760317d1f95e9
     Pseudo is Norm-conserving + core correction, Zval =  4.0
     Generated using ONCVPSP code by D. R. Hamann
     Using radial grid of 1248 points,  4 beta functions with: 
                l(1) =   0
                l(2) =   0
                l(3) =   1
                l(4) =   1

     PseudoPot. # 2 for H  read from file:
     /home/ciga/builds/pseudo_potentials/H.upf
     MD5 check sum: 418cee52d0c413ae40802e6cc37ab9e3
     Pseudo is Norm-conserving, Zval =  1.0
     Generated using ONCVPSP code by D. R. Hamann
     Using radial grid of 1166 points,  3 beta functions with: 
                l(1) =   0
                l(2) =   0
                l(3) =   1

     atomic species   valence    mass     pseudopotential
        C              4.00    12.01070     C ( 1.00)
        H              1.00     1.00794     H ( 1.00)

     No symmetry found



   Cartesian axes

     site n.     atom                  positions (alat units)
         1           C   tau(   1) = (  -0.0538477   0.0001013  -0.0482474  )
         2           C   tau(   2) = (  -0.1849512  -0.0000971   0.0123790  )
         3           C   tau(   3) = (   0.0538490   0.0001009   0.0482523  )
         4           H   tau(   4) = (  -0.1986090  -0.0840791   0.0720042  )
         5           H   tau(   5) = (  -0.1985342   0.0833947   0.0727081  )
         6           H   tau(   6) = (  -0.2602361   0.0002431  -0.0590752  )
         7           H   tau(   7) = (  -0.0438729  -0.0829300  -0.1103678  )
         8           H   tau(   8) = (  -0.0440152   0.0833250  -0.1101304  )
         9           H   tau(   9) = (   0.0440164   0.0833191   0.1101411  )
        10           H   tau(  10) = (   0.0438795  -0.0829346   0.1103664  )
        11           C   tau(  11) = (   0.1849499  -0.0000971  -0.0123831  )
        12           H   tau(  12) = (   0.2602422   0.0006557   0.0590606  )
        13           H   tau(  13) = (   0.1987544  -0.0842815  -0.0716874  )
        14           H   tau(  14) = (   0.1983749   0.0831906  -0.0730295  )

     number of k points=     1
                       cart. coord. in units 2pi/alat
        k(    1) = (   0.0000000   0.0000000   0.0000000), wk =   2.0000000

     Dense  grid:   220708 G-vectors     FFT dimensions: (  96,  96,  96)

     Estimated max dynamical RAM per process >      55.96 MB

     Estimated total dynamical RAM >     223.84 MB

     Initial potential from superposition of free atoms

     starting charge   25.99973, renormalised to   26.00000

     negative rho (up, down):  5.352E-04 0.000E+00
     Starting wfcs are   26 randomized atomic wfcs

     total cpu time spent up to now is        1.0 secs

     Self-consistent Calculation

     iteration #  1     ecut=    55.00 Ry     beta= 0.50
     Davidson diagonalization with overlap
     ethr =  1.00E-02,  avg # of iterations =  2.0

     negative rho (up, down):  2.341E-04 0.000E+00

     total cpu time spent up to now is        1.9 secs

     total energy              =     -59.74141297 Ry
     estimated scf accuracy    <       1.66218292 Ry

     iteration #  2     ecut=    55.00 Ry     beta= 0.50
     Davidson diagonalization with overlap
     ethr =  6.39E-03,  avg # of iterations =  2.0

     negative rho (up, down):  1.059E-04 0.000E+00

     total cpu time spent up to now is        2.9 secs

     total energy              =     -60.03599669 Ry
     estimated scf accuracy    <       0.12110534 Ry

     iteration #  3     ecut=    55.00 Ry     beta= 0.50
     Davidson diagonalization with overlap
     ethr =  4.66E-04,  avg # of iterations =  1.0

     negative rho (up, down):  5.239E-06 0.000E+00

     total cpu time spent up to now is        3.6 secs

     total energy              =     -60.02744834 Ry
     estimated scf accuracy    <       0.02847651 Ry

     iteration #  4     ecut=    55.00 Ry     beta= 0.50
     Davidson diagonalization with overlap
     ethr =  1.10E-04,  avg # of iterations =  2.0

     negative rho (up, down):  3.061E-06 0.000E+00

     total cpu time spent up to now is        4.5 secs

     total energy              =     -60.03031383 Ry
     estimated scf accuracy    <       0.00429720 Ry

     iteration #  5     ecut=    55.00 Ry     beta= 0.50
     Davidson diagonalization with overlap
     ethr =  1.65E-05,  avg # of iterations =  2.0

     negative rho (up, down):  4.293E-08 0.000E+00

     total cpu time spent up to now is        5.5 secs

     total energy              =     -60.03137549 Ry
     estimated scf accuracy    <       0.00132183 Ry

     iteration #  6     ecut=    55.00 Ry     beta= 0.50
     Davidson diagonalization with overlap
     ethr =  5.08E-06,  avg # of iterations =  2.0

     negative rho (up, down):  1.088E-08 0.000E+00

     total cpu time spent up to now is        6.4 secs

     total energy              =     -60.03174767 Ry
     estimated scf accuracy    <       0.00033449 Ry

     iteration #  7     ecut=    55.00 Ry     beta= 0.50
     Davidson diagonalization with overlap
     ethr =  1.29E-06,  avg # of iterations =  2.0

     total cpu time spent up to now is        7.4 secs

     total energy              =     -60.03180108 Ry
     estimated scf accuracy    <       0.00000323 Ry

     iteration #  8     ecut=    55.00 Ry     beta= 0.50
     Davidson diagonalization with overlap
     ethr =  1.24E-08,  avg # of iterations =  4.0

     total cpu time spent up to now is        8.6 secs

     total energy              =     -60.03180507 Ry
     estimated scf accuracy    <       0.00000300 Ry

     iteration #  9     ecut=    55.00 Ry     beta= 0.50
     Davidson diagonalization with overlap
     ethr =  1.15E-08,  avg # of iterations =  1.0

     total cpu time spent up to now is        9.4 secs

     total energy              =     -60.03180440 Ry
     estimated scf accuracy    <       0.00000123 Ry

     iteration # 10     ecut=    55.00 Ry     beta= 0.50
     Davidson diagonalization with overlap
     ethr =  4.75E-09,  avg # of iterations =  2.0

     total cpu time spent up to now is       10.4 secs

     total energy              =     -60.03180484 Ry
     estimated scf accuracy    <       0.00000012 Ry

     iteration # 11     ecut=    55.00 Ry     beta= 0.50
     Davidson diagonalization with overlap
     ethr =  4.59E-10,  avg # of iterations =  1.0

     total cpu time spent up to now is       11.2 secs

     total energy              =     -60.03180483 Ry
     estimated scf accuracy    <       0.00000004 Ry

     iteration # 12     ecut=    55.00 Ry     beta= 0.50
     Davidson diagonalization with overlap
     ethr =  1.41E-10,  avg # of iterations =  2.0

     total cpu time spent up to now is       12.2 secs

     total energy              =     -60.03180484 Ry
     estimated scf accuracy    <          7.5E-10 Ry

     iteration # 13     ecut=    55.00 Ry     beta= 0.50
     Davidson diagonalization with overlap
     ethr =  2.88E-12,  avg # of iterations =  3.0

     total cpu time spent up to now is       13.3 secs

     total energy              =     -60.03180484 Ry
     estimated scf accuracy    <          9.1E-10 Ry

     iteration # 14     ecut=    55.00 Ry     beta= 0.50
     Davidson diagonalization with overlap
     ethr =  2.88E-12,  avg # of iterations =  2.0

     total cpu time spent up to now is       14.3 secs

     total energy              =     -60.03180484 Ry
     estimated scf accuracy    <          2.9E-11 Ry

     iteration # 15     ecut=    55.00 Ry     beta= 0.50
     Davidson diagonalization with overlap
     ethr =  1.10E-13,  avg # of iterations =  3.0

     total cpu time spent up to now is       15.3 secs

     total energy              =     -60.03180484 Ry
     estimated scf accuracy    <          3.3E-11 Ry

     iteration # 16     ecut=    55.00 Ry     beta= 0.50
     Davidson diagonalization with overlap
     ethr =  1.10E-13,  avg # of iterations =  2.0

     total cpu time spent up to now is       16.2 secs

     total energy              =     -60.03180484 Ry
     estimated scf accuracy    <          3.8E-12 Ry

     iteration # 17     ecut=    55.00 Ry     beta= 0.50
     Davidson diagonalization with overlap
     ethr =  1.00E-13,  avg # of iterations =  1.0

     total cpu time spent up to now is       17.0 secs

     End of self-consistent calculation

          k = 0.0000 0.0000 0.0000 ( 27590 PWs)   bands (ev):

   -19.1575 -17.3491 -14.9528 -13.5734 -10.9188  -9.8619  -9.7144  -9.4288
    -8.3616  -7.8549  -7.5467  -7.2144  -7.1230

     highest occupied level (ev):    -7.1230

!    total energy              =     -60.03180484 Ry
     estimated scf accuracy    <          4.4E-14 Ry

     The total energy is the sum of the following terms:
     one-electron contribution =    -203.40952903 Ry
     hartree contribution      =     105.18934531 Ry
     xc contribution           =     -24.31790643 Ry
     ewald contribution        =      62.50628532 Ry

     convergence has been achieved in  17 iterations

     Forces acting on atoms (cartesian axes, Ry/au):

     atom    1 type  1   force =    -0.00006904   -0.00002345    0.00086426
     atom    2 type  1   force =     0.00064921    0.00001067   -0.00052012
     atom    3 type  1   force =     0.00008074    0.00000916   -0.00088038
     atom    4 type  2   force =     0.00006758   -0.00003457    0.00004291
     atom    5 type  2   force =     0.00006534    0.00005379    0.00001798
     atom    6 type  2   force =     0.00006701   -0.00002889    0.00009629
     atom    7 type  2   force =    -0.00009767   -0.00008817   -0.00009822
     atom    8 type  2   force =    -0.00009177    0.00007630   -0.00012426
     atom    9 type  2   force =     0.00008994    0.00010176    0.00011332
     atom   10 type  2   force =     0.00009693   -0.00008126    0.00011881
     atom   11 type  1   force =    -0.00065401    0.00001890    0.00053469
     atom   12 type  2   force =    -0.00007403   -0.00006472   -0.00009267
     atom   13 type  2   force =    -0.00007667   -0.00001470   -0.00006884
     atom   14 type  2   force =    -0.00005355    0.00006519   -0.00000379

     Total force =     0.001767     Total SCF correction =     0.000000

     Writing output data file ./Buthane.save/

     init_run     :      0.85s CPU      0.90s WALL (       1 calls)
     electrons    :     15.65s CPU     16.00s WALL (       1 calls)
     forces       :      0.61s CPU      0.64s WALL (       1 calls)

     Called by init_run:
     wfcinit      :      0.34s CPU      0.35s WALL (       1 calls)
     potinit      :      0.32s CPU      0.35s WALL (       1 calls)
     hinit0       :      0.12s CPU      0.13s WALL (       1 calls)

     Called by electrons:
     c_bands      :      8.99s CPU      9.07s WALL (      17 calls)
     sum_band     :      2.08s CPU      2.11s WALL (      17 calls)
     v_of_rho     :      3.61s CPU      3.84s WALL (      18 calls)
     mix_rho      :      1.04s CPU      1.06s WALL (      17 calls)

     Called by c_bands:
     init_us_2    :      0.16s CPU      0.18s WALL (      35 calls)
     regterg      :      8.78s CPU      8.86s WALL (      17 calls)

     Called by *egterg:
     rdiaghg      :      0.04s CPU      0.04s WALL (      51 calls)
     h_psi        :      7.88s CPU      7.95s WALL (      52 calls)
     g_psi        :      0.02s CPU      0.02s WALL (      34 calls)

     Called by h_psi:
     h_psi:calbec :      1.11s CPU      1.12s WALL (      52 calls)
     vloc_psi     :      5.84s CPU      5.90s WALL (      52 calls)
     add_vuspsi   :      0.88s CPU      0.88s WALL (      52 calls)

     General routines
     calbec       :      1.20s CPU      1.20s WALL (      56 calls)
     fft          :      2.48s CPU      2.56s WALL (     152 calls)
     ffts         :      0.27s CPU      0.27s WALL (      17 calls)
     fftw         :      5.48s CPU      5.54s WALL (     803 calls)

     Parallel routines

     PWSCF        :     17.20s CPU     17.64s WALL


   This run was terminated on:   1:13:27  24May2021            

=------------------------------------------------------------------------------=
   JOB DONE.
=------------------------------------------------------------------------------=
