
     Program PWSCF v.6.7GPU starts on 24May2021 at  1:16:52 

     This program is part of the open-source Quantum ESPRESSO suite
     for quantum simulation of materials; please cite
         "P. Giannozzi et al., J. Phys.:Condens. Matter 21 395502 (2009);
         "P. Giannozzi et al., J. Phys.:Condens. Matter 29 465901 (2017);
         "P. Giannozzi et al., J. Chem. Phys. 152 154105 (2020);
          URL http://www.quantum-espresso.org", 
     in publications or presentations arising from this work. More details at
     http://www.quantum-espresso.org/quote

     Parallel version (MPI), running on     4 processors

     MPI processes distributed on     1 nodes
     R & G space division:  proc/nbgrp/npool/nimage =       4
     Waiting for input...
     Reading input from standard input
     Message from routine read_cards :
     DEPRECATED: no units specified in CELL_PARAMETERS card

     Current dimensions of program PWSCF are:
     Max number of different atomic species (ntypx) = 10
     Max number of k-points (npk) =  40000
     Max angular momentum in pseudopotentials (lmaxx) =  3

     gamma-point specific algorithms are used

     Subspace diagonalization in iterative solution of the eigenvalue problem:
     one sub-group per band group will be used
     scalapack distributed-memory algorithm (size of sub-group:  2*  2 procs)


     Parallelization info
     --------------------
     sticks:   dense  smooth     PW     G-vecs:    dense   smooth      PW
     Min        3022    3022    754               250214   250214   31205
     Max        3024    3024    755               250219   250219   31206
     Sum       12093   12093   3017              1000865  1000865  124823

     Using Slab Decomposition



     bravais-lattice index     =            0
     lattice parameter (alat)  =      20.0000  a.u.
     unit-cell volume          =    8000.0000 (a.u.)^3
     number of atoms/cell      =           14
     number of atomic types    =            2
     number of electrons       =        26.00
     number of Kohn-Sham states=           13
     kinetic-energy cutoff     =      95.0000  Ry
     charge density cutoff     =     380.0000  Ry
     scf convergence threshold =      1.0E-12
     mixing beta               =       0.5000
     number of iterations used =            8  plain     mixing
     Exchange-correlation= PBE
                           (   1   4   3   4   0   0   0)

     celldm(1)=  20.000000  celldm(2)=   0.000000  celldm(3)=   0.000000
     celldm(4)=   0.000000  celldm(5)=   0.000000  celldm(6)=   0.000000

     crystal axes: (cart. coord. in units of alat)
               a(1) = (   1.000000   0.000000   0.000000 )  
               a(2) = (   0.000000   1.000000   0.000000 )  
               a(3) = (   0.000000   0.000000   1.000000 )  

     reciprocal axes: (cart. coord. in units 2 pi/alat)
               b(1) = (  1.000000  0.000000  0.000000 )  
               b(2) = (  0.000000  1.000000  0.000000 )  
               b(3) = (  0.000000  0.000000  1.000000 )  


     PseudoPot. # 1 for C  read from file:
     /home/ciga/builds/pseudo_potentials/C.upf
     MD5 check sum: d80ec9912146af6c4c1760317d1f95e9
     Pseudo is Norm-conserving + core correction, Zval =  4.0
     Generated using ONCVPSP code by D. R. Hamann
     Using radial grid of 1248 points,  4 beta functions with: 
                l(1) =   0
                l(2) =   0
                l(3) =   1
                l(4) =   1

     PseudoPot. # 2 for H  read from file:
     /home/ciga/builds/pseudo_potentials/H.upf
     MD5 check sum: 418cee52d0c413ae40802e6cc37ab9e3
     Pseudo is Norm-conserving, Zval =  1.0
     Generated using ONCVPSP code by D. R. Hamann
     Using radial grid of 1166 points,  3 beta functions with: 
                l(1) =   0
                l(2) =   0
                l(3) =   1

     atomic species   valence    mass     pseudopotential
        C              4.00    12.01070     C ( 1.00)
        H              1.00     1.00794     H ( 1.00)

     No symmetry found



   Cartesian axes

     site n.     atom                  positions (alat units)
         1           C   tau(   1) = (  -0.0538477   0.0001013  -0.0482474  )
         2           C   tau(   2) = (  -0.1849512  -0.0000971   0.0123790  )
         3           C   tau(   3) = (   0.0538490   0.0001009   0.0482523  )
         4           H   tau(   4) = (  -0.1986090  -0.0840791   0.0720042  )
         5           H   tau(   5) = (  -0.1985342   0.0833947   0.0727081  )
         6           H   tau(   6) = (  -0.2602361   0.0002431  -0.0590752  )
         7           H   tau(   7) = (  -0.0438729  -0.0829300  -0.1103678  )
         8           H   tau(   8) = (  -0.0440152   0.0833250  -0.1101304  )
         9           H   tau(   9) = (   0.0440164   0.0833191   0.1101411  )
        10           H   tau(  10) = (   0.0438795  -0.0829346   0.1103664  )
        11           C   tau(  11) = (   0.1849499  -0.0000971  -0.0123831  )
        12           H   tau(  12) = (   0.2602422   0.0006557   0.0590606  )
        13           H   tau(  13) = (   0.1987544  -0.0842815  -0.0716874  )
        14           H   tau(  14) = (   0.1983749   0.0831906  -0.0730295  )

     number of k points=     1
                       cart. coord. in units 2pi/alat
        k(    1) = (   0.0000000   0.0000000   0.0000000), wk =   2.0000000

     Dense  grid:   500433 G-vectors     FFT dimensions: ( 125, 125, 125)

     Estimated max dynamical RAM per process >     126.15 MB

     Estimated total dynamical RAM >     504.61 MB

     Initial potential from superposition of free atoms

     starting charge   25.99973, renormalised to   26.00000

     negative rho (up, down):  4.107E-06 0.000E+00
     Starting wfcs are   26 randomized atomic wfcs

     total cpu time spent up to now is        2.1 secs

     Self-consistent Calculation

     iteration #  1     ecut=    95.00 Ry     beta= 0.50
     Davidson diagonalization with overlap
     ethr =  1.00E-02,  avg # of iterations =  2.0

     negative rho (up, down):  5.117E-08 0.000E+00

     total cpu time spent up to now is        4.4 secs

     total energy              =     -59.76672021 Ry
     estimated scf accuracy    <       1.68464419 Ry

     iteration #  2     ecut=    95.00 Ry     beta= 0.50
     Davidson diagonalization with overlap
     ethr =  6.48E-03,  avg # of iterations =  2.0

     total cpu time spent up to now is        6.7 secs

     total energy              =     -60.06832896 Ry
     estimated scf accuracy    <       0.12214358 Ry

     iteration #  3     ecut=    95.00 Ry     beta= 0.50
     Davidson diagonalization with overlap
     ethr =  4.70E-04,  avg # of iterations =  1.0

     total cpu time spent up to now is        8.5 secs

     total energy              =     -60.05973449 Ry
     estimated scf accuracy    <       0.02887623 Ry

     iteration #  4     ecut=    95.00 Ry     beta= 0.50
     Davidson diagonalization with overlap
     ethr =  1.11E-04,  avg # of iterations =  2.0

     total cpu time spent up to now is       10.6 secs

     total energy              =     -60.06262397 Ry
     estimated scf accuracy    <       0.00445147 Ry

     iteration #  5     ecut=    95.00 Ry     beta= 0.50
     Davidson diagonalization with overlap
     ethr =  1.71E-05,  avg # of iterations =  2.0

     total cpu time spent up to now is       12.9 secs

     total energy              =     -60.06372069 Ry
     estimated scf accuracy    <       0.00141219 Ry

     iteration #  6     ecut=    95.00 Ry     beta= 0.50
     Davidson diagonalization with overlap
     ethr =  5.43E-06,  avg # of iterations =  2.0

     total cpu time spent up to now is       15.2 secs

     total energy              =     -60.06412147 Ry
     estimated scf accuracy    <       0.00035214 Ry

     iteration #  7     ecut=    95.00 Ry     beta= 0.50
     Davidson diagonalization with overlap
     ethr =  1.35E-06,  avg # of iterations =  2.0

     total cpu time spent up to now is       17.5 secs

     total energy              =     -60.06417533 Ry
     estimated scf accuracy    <       0.00000438 Ry

     iteration #  8     ecut=    95.00 Ry     beta= 0.50
     Davidson diagonalization with overlap
     ethr =  1.68E-08,  avg # of iterations =  4.0

     total cpu time spent up to now is       20.3 secs

     total energy              =     -60.06418016 Ry
     estimated scf accuracy    <       0.00000355 Ry

     iteration #  9     ecut=    95.00 Ry     beta= 0.50
     Davidson diagonalization with overlap
     ethr =  1.36E-08,  avg # of iterations =  1.0

     total cpu time spent up to now is       22.1 secs

     total energy              =     -60.06417956 Ry
     estimated scf accuracy    <       0.00000127 Ry

     iteration # 10     ecut=    95.00 Ry     beta= 0.50
     Davidson diagonalization with overlap
     ethr =  4.88E-09,  avg # of iterations =  2.0

     total cpu time spent up to now is       24.5 secs

     total energy              =     -60.06417999 Ry
     estimated scf accuracy    <       0.00000007 Ry

     iteration # 11     ecut=    95.00 Ry     beta= 0.50
     Davidson diagonalization with overlap
     ethr =  2.80E-10,  avg # of iterations =  2.0

     total cpu time spent up to now is       26.4 secs

     total energy              =     -60.06417998 Ry
     estimated scf accuracy    <       0.00000004 Ry

     iteration # 12     ecut=    95.00 Ry     beta= 0.50
     Davidson diagonalization with overlap
     ethr =  1.40E-10,  avg # of iterations =  2.0

     total cpu time spent up to now is       28.6 secs

     total energy              =     -60.06417999 Ry
     estimated scf accuracy    <          2.7E-09 Ry

     iteration # 13     ecut=    95.00 Ry     beta= 0.50
     Davidson diagonalization with overlap
     ethr =  1.03E-11,  avg # of iterations =  2.0

     total cpu time spent up to now is       30.7 secs

     total energy              =     -60.06417999 Ry
     estimated scf accuracy    <          1.5E-09 Ry

     iteration # 14     ecut=    95.00 Ry     beta= 0.50
     Davidson diagonalization with overlap
     ethr =  5.82E-12,  avg # of iterations =  3.0

     total cpu time spent up to now is       33.1 secs

     total energy              =     -60.06417999 Ry
     estimated scf accuracy    <          6.6E-10 Ry

     iteration # 15     ecut=    95.00 Ry     beta= 0.50
     Davidson diagonalization with overlap
     ethr =  2.52E-12,  avg # of iterations =  2.0

     total cpu time spent up to now is       35.2 secs

     total energy              =     -60.06417999 Ry
     estimated scf accuracy    <          6.6E-11 Ry

     iteration # 16     ecut=    95.00 Ry     beta= 0.50
     Davidson diagonalization with overlap
     ethr =  2.55E-13,  avg # of iterations =  2.0

     total cpu time spent up to now is       37.3 secs

     End of self-consistent calculation

          k = 0.0000 0.0000 0.0000 ( 62412 PWs)   bands (ev):

   -19.1376 -17.3311 -14.9378 -13.5618 -10.9165  -9.8609  -9.7128  -9.4283
    -8.3627  -7.8567  -7.5475  -7.2157  -7.1249

     highest occupied level (ev):    -7.1249

!    total energy              =     -60.06417999 Ry
     estimated scf accuracy    <          7.1E-13 Ry

     The total energy is the sum of the following terms:
     one-electron contribution =    -203.46582549 Ry
     hartree contribution      =     105.22655914 Ry
     xc contribution           =     -24.33119896 Ry
     ewald contribution        =      62.50628533 Ry

     convergence has been achieved in  16 iterations

     Forces acting on atoms (cartesian axes, Ry/au):

     atom    1 type  1   force =     0.00025215   -0.00002073   -0.00189582
     atom    2 type  1   force =    -0.00159122    0.00000748    0.00055533
     atom    3 type  1   force =    -0.00024014    0.00001173    0.00187957
     atom    4 type  2   force =     0.00024296    0.00091549   -0.00063131
     atom    5 type  2   force =     0.00024011   -0.00089069   -0.00066402
     atom    6 type  2   force =     0.00092306   -0.00003158    0.00085368
     atom    7 type  2   force =    -0.00020346    0.00089501    0.00064783
     atom    8 type  2   force =    -0.00019660   -0.00090896    0.00061844
     atom    9 type  2   force =     0.00019478   -0.00088341   -0.00062947
     atom   10 type  2   force =     0.00020266    0.00090187   -0.00062704
     atom   11 type  1   force =     0.00158618    0.00001378   -0.00054082
     atom   12 type  2   force =    -0.00093023   -0.00007082   -0.00084998
     atom   13 type  2   force =    -0.00025355    0.00093771    0.00060187
     atom   14 type  2   force =    -0.00022670   -0.00087687    0.00068173

     Total force =     0.005121     Total SCF correction =     0.000001

     Writing output data file ./Buthane.save/

     init_run     :      1.94s CPU      2.06s WALL (       1 calls)
     electrons    :     34.53s CPU     35.16s WALL (       1 calls)
     forces       :      1.28s CPU      1.33s WALL (       1 calls)

     Called by init_run:
     wfcinit      :      0.88s CPU      0.89s WALL (       1 calls)
     potinit      :      0.62s CPU      0.70s WALL (       1 calls)
     hinit0       :      0.22s CPU      0.25s WALL (       1 calls)

     Called by electrons:
     c_bands      :     20.80s CPU     20.91s WALL (      16 calls)
     sum_band     :      4.44s CPU      4.48s WALL (      16 calls)
     v_of_rho     :      7.30s CPU      7.79s WALL (      17 calls)
     mix_rho      :      2.21s CPU      2.23s WALL (      16 calls)

     Called by c_bands:
     init_us_2    :      0.34s CPU      0.35s WALL (      33 calls)
     regterg      :     20.37s CPU     20.48s WALL (      16 calls)

     Called by *egterg:
     rdiaghg      :      0.04s CPU      0.04s WALL (      49 calls)
     h_psi        :     18.29s CPU     18.40s WALL (      50 calls)
     g_psi        :      0.05s CPU      0.05s WALL (      33 calls)

     Called by h_psi:
     h_psi:calbec :      2.23s CPU      2.23s WALL (      50 calls)
     vloc_psi     :     14.12s CPU     14.21s WALL (      50 calls)
     add_vuspsi   :      1.84s CPU      1.84s WALL (      50 calls)

     General routines
     calbec       :      2.42s CPU      2.43s WALL (      54 calls)
     fft          :      5.18s CPU      5.29s WALL (     144 calls)
     ffts         :      0.58s CPU      0.58s WALL (      16 calls)
     fftw         :     13.59s CPU     13.68s WALL (     758 calls)

     Parallel routines

     PWSCF        :     37.85s CPU     38.68s WALL


   This run was terminated on:   1:17:31  24May2021            

=------------------------------------------------------------------------------=
   JOB DONE.
=------------------------------------------------------------------------------=
