
     Program PWSCF v.6.7GPU starts on 24May2021 at  1:12:27 

     This program is part of the open-source Quantum ESPRESSO suite
     for quantum simulation of materials; please cite
         "P. Giannozzi et al., J. Phys.:Condens. Matter 21 395502 (2009);
         "P. Giannozzi et al., J. Phys.:Condens. Matter 29 465901 (2017);
         "P. Giannozzi et al., J. Chem. Phys. 152 154105 (2020);
          URL http://www.quantum-espresso.org", 
     in publications or presentations arising from this work. More details at
     http://www.quantum-espresso.org/quote

     Parallel version (MPI), running on     4 processors

     MPI processes distributed on     1 nodes
     R & G space division:  proc/nbgrp/npool/nimage =       4
     Waiting for input...
     Reading input from standard input
     Message from routine read_cards :
     DEPRECATED: no units specified in CELL_PARAMETERS card

     Current dimensions of program PWSCF are:
     Max number of different atomic species (ntypx) = 10
     Max number of k-points (npk) =  40000
     Max angular momentum in pseudopotentials (lmaxx) =  3

     gamma-point specific algorithms are used

     Subspace diagonalization in iterative solution of the eigenvalue problem:
     one sub-group per band group will be used
     scalapack distributed-memory algorithm (size of sub-group:  2*  2 procs)


     Parallelization info
     --------------------
     sticks:   dense  smooth     PW     G-vecs:    dense   smooth      PW
     Min        1271    1271    317                68355    68355    8565
     Max        1276    1276    322                68358    68358    8568
     Sum        5097    5097   1281               273425   273425   34265

     Using Slab Decomposition



     bravais-lattice index     =            0
     lattice parameter (alat)  =      20.0000  a.u.
     unit-cell volume          =    8000.0000 (a.u.)^3
     number of atoms/cell      =           14
     number of atomic types    =            2
     number of electrons       =        26.00
     number of Kohn-Sham states=           13
     kinetic-energy cutoff     =      40.0000  Ry
     charge density cutoff     =     160.0000  Ry
     scf convergence threshold =      1.0E-12
     mixing beta               =       0.5000
     number of iterations used =            8  plain     mixing
     Exchange-correlation= PBE
                           (   1   4   3   4   0   0   0)

     celldm(1)=  20.000000  celldm(2)=   0.000000  celldm(3)=   0.000000
     celldm(4)=   0.000000  celldm(5)=   0.000000  celldm(6)=   0.000000

     crystal axes: (cart. coord. in units of alat)
               a(1) = (   1.000000   0.000000   0.000000 )  
               a(2) = (   0.000000   1.000000   0.000000 )  
               a(3) = (   0.000000   0.000000   1.000000 )  

     reciprocal axes: (cart. coord. in units 2 pi/alat)
               b(1) = (  1.000000  0.000000  0.000000 )  
               b(2) = (  0.000000  1.000000  0.000000 )  
               b(3) = (  0.000000  0.000000  1.000000 )  


     PseudoPot. # 1 for C  read from file:
     /home/ciga/builds/pseudo_potentials/C.upf
     MD5 check sum: d80ec9912146af6c4c1760317d1f95e9
     Pseudo is Norm-conserving + core correction, Zval =  4.0
     Generated using ONCVPSP code by D. R. Hamann
     Using radial grid of 1248 points,  4 beta functions with: 
                l(1) =   0
                l(2) =   0
                l(3) =   1
                l(4) =   1

     PseudoPot. # 2 for H  read from file:
     /home/ciga/builds/pseudo_potentials/H.upf
     MD5 check sum: 418cee52d0c413ae40802e6cc37ab9e3
     Pseudo is Norm-conserving, Zval =  1.0
     Generated using ONCVPSP code by D. R. Hamann
     Using radial grid of 1166 points,  3 beta functions with: 
                l(1) =   0
                l(2) =   0
                l(3) =   1

     atomic species   valence    mass     pseudopotential
        C              4.00    12.01070     C ( 1.00)
        H              1.00     1.00794     H ( 1.00)

     No symmetry found



   Cartesian axes

     site n.     atom                  positions (alat units)
         1           C   tau(   1) = (  -0.0538477   0.0001013  -0.0482474  )
         2           C   tau(   2) = (  -0.1849512  -0.0000971   0.0123790  )
         3           C   tau(   3) = (   0.0538490   0.0001009   0.0482523  )
         4           H   tau(   4) = (  -0.1986090  -0.0840791   0.0720042  )
         5           H   tau(   5) = (  -0.1985342   0.0833947   0.0727081  )
         6           H   tau(   6) = (  -0.2602361   0.0002431  -0.0590752  )
         7           H   tau(   7) = (  -0.0438729  -0.0829300  -0.1103678  )
         8           H   tau(   8) = (  -0.0440152   0.0833250  -0.1101304  )
         9           H   tau(   9) = (   0.0440164   0.0833191   0.1101411  )
        10           H   tau(  10) = (   0.0438795  -0.0829346   0.1103664  )
        11           C   tau(  11) = (   0.1849499  -0.0000971  -0.0123831  )
        12           H   tau(  12) = (   0.2602422   0.0006557   0.0590606  )
        13           H   tau(  13) = (   0.1987544  -0.0842815  -0.0716874  )
        14           H   tau(  14) = (   0.1983749   0.0831906  -0.0730295  )

     number of k points=     1
                       cart. coord. in units 2pi/alat
        k(    1) = (   0.0000000   0.0000000   0.0000000), wk =   2.0000000

     Dense  grid:   136713 G-vectors     FFT dimensions: (  81,  81,  81)

     Estimated max dynamical RAM per process >      34.89 MB

     Estimated total dynamical RAM >     139.57 MB

     Initial potential from superposition of free atoms

     starting charge   25.99973, renormalised to   26.00000

     negative rho (up, down):  1.472E-03 0.000E+00
     Starting wfcs are   26 randomized atomic wfcs

     total cpu time spent up to now is        0.6 secs

     Self-consistent Calculation

     iteration #  1     ecut=    40.00 Ry     beta= 0.50
     Davidson diagonalization with overlap
     ethr =  1.00E-02,  avg # of iterations =  2.0

     negative rho (up, down):  6.738E-04 0.000E+00

     total cpu time spent up to now is        1.2 secs

     total energy              =     -59.61204861 Ry
     estimated scf accuracy    <       1.56700608 Ry

     iteration #  2     ecut=    40.00 Ry     beta= 0.50
     Davidson diagonalization with overlap
     ethr =  6.03E-03,  avg # of iterations =  2.0

     negative rho (up, down):  3.033E-04 0.000E+00

     total cpu time spent up to now is        1.8 secs

     total energy              =     -59.87727890 Ry
     estimated scf accuracy    <       0.11732044 Ry

     iteration #  3     ecut=    40.00 Ry     beta= 0.50
     Davidson diagonalization with overlap
     ethr =  4.51E-04,  avg # of iterations =  1.0

     negative rho (up, down):  9.237E-06 0.000E+00

     total cpu time spent up to now is        2.2 secs

     total energy              =     -59.86919095 Ry
     estimated scf accuracy    <       0.02679391 Ry

     iteration #  4     ecut=    40.00 Ry     beta= 0.50
     Davidson diagonalization with overlap
     ethr =  1.03E-04,  avg # of iterations =  2.0

     negative rho (up, down):  4.845E-06 0.000E+00

     total cpu time spent up to now is        2.8 secs

     total energy              =     -59.87191045 Ry
     estimated scf accuracy    <       0.00358455 Ry

     iteration #  5     ecut=    40.00 Ry     beta= 0.50
     Davidson diagonalization with overlap
     ethr =  1.38E-05,  avg # of iterations =  2.0

     negative rho (up, down):  1.541E-08 0.000E+00

     total cpu time spent up to now is        3.4 secs

     total energy              =     -59.87284403 Ry
     estimated scf accuracy    <       0.00101414 Ry

     iteration #  6     ecut=    40.00 Ry     beta= 0.50
     Davidson diagonalization with overlap
     ethr =  3.90E-06,  avg # of iterations =  2.0

     total cpu time spent up to now is        3.9 secs

     total energy              =     -59.87311008 Ry
     estimated scf accuracy    <       0.00018626 Ry

     iteration #  7     ecut=    40.00 Ry     beta= 0.50
     Davidson diagonalization with overlap
     ethr =  7.16E-07,  avg # of iterations =  2.0

     total cpu time spent up to now is        4.5 secs

     total energy              =     -59.87315009 Ry
     estimated scf accuracy    <       0.00000104 Ry

     iteration #  8     ecut=    40.00 Ry     beta= 0.50
     Davidson diagonalization with overlap
     ethr =  4.00E-09,  avg # of iterations =  4.0

     total cpu time spent up to now is        5.2 secs

     total energy              =     -59.87315089 Ry
     estimated scf accuracy    <       0.00000086 Ry

     iteration #  9     ecut=    40.00 Ry     beta= 0.50
     Davidson diagonalization with overlap
     ethr =  3.31E-09,  avg # of iterations =  1.0

     total cpu time spent up to now is        5.7 secs

     total energy              =     -59.87315075 Ry
     estimated scf accuracy    <       0.00000026 Ry

     iteration # 10     ecut=    40.00 Ry     beta= 0.50
     Davidson diagonalization with overlap
     ethr =  9.96E-10,  avg # of iterations =  3.0

     total cpu time spent up to now is        6.3 secs

     total energy              =     -59.87315085 Ry
     estimated scf accuracy    <       0.00000007 Ry

     iteration # 11     ecut=    40.00 Ry     beta= 0.50
     Davidson diagonalization with overlap
     ethr =  2.51E-10,  avg # of iterations =  2.0

     total cpu time spent up to now is        6.9 secs

     total energy              =     -59.87315086 Ry
     estimated scf accuracy    <          1.3E-09 Ry

     iteration # 12     ecut=    40.00 Ry     beta= 0.50
     Davidson diagonalization with overlap
     ethr =  5.04E-12,  avg # of iterations =  4.0

     total cpu time spent up to now is        7.6 secs

     total energy              =     -59.87315086 Ry
     estimated scf accuracy    <          4.2E-10 Ry

     iteration # 13     ecut=    40.00 Ry     beta= 0.50
     Davidson diagonalization with overlap
     ethr =  1.62E-12,  avg # of iterations =  2.0

     total cpu time spent up to now is        8.1 secs

     total energy              =     -59.87315086 Ry
     estimated scf accuracy    <          1.2E-10 Ry

     iteration # 14     ecut=    40.00 Ry     beta= 0.50
     Davidson diagonalization with overlap
     ethr =  4.44E-13,  avg # of iterations =  2.0

     total cpu time spent up to now is        8.7 secs

     total energy              =     -59.87315086 Ry
     estimated scf accuracy    <          2.1E-11 Ry

     iteration # 15     ecut=    40.00 Ry     beta= 0.50
     Davidson diagonalization with overlap
     ethr =  1.00E-13,  avg # of iterations =  2.0

     total cpu time spent up to now is        9.2 secs

     total energy              =     -59.87315086 Ry
     estimated scf accuracy    <          2.2E-12 Ry

     iteration # 16     ecut=    40.00 Ry     beta= 0.50
     Davidson diagonalization with overlap
     ethr =  1.00E-13,  avg # of iterations =  1.0

     total cpu time spent up to now is        9.6 secs

     End of self-consistent calculation

          k = 0.0000 0.0000 0.0000 ( 17133 PWs)   bands (ev):

   -19.2316 -17.4127 -15.0021 -13.6050 -10.9221  -9.8637  -9.7223  -9.4250
    -8.3569  -7.8444  -7.5409  -7.2042  -7.1115

     highest occupied level (ev):    -7.1115

!    total energy              =     -59.87315086 Ry
     estimated scf accuracy    <          1.3E-13 Ry

     The total energy is the sum of the following terms:
     one-electron contribution =    -203.13096512 Ry
     hartree contribution      =     105.01544496 Ry
     xc contribution           =     -24.26391602 Ry
     ewald contribution        =      62.50628532 Ry

     convergence has been achieved in  16 iterations

     Forces acting on atoms (cartesian axes, Ry/au):

     atom    1 type  1   force =     0.00313390   -0.00000781   -0.01734122
     atom    2 type  1   force =    -0.01377749   -0.00000711    0.00670155
     atom    3 type  1   force =    -0.00312051    0.00002556    0.01732525
     atom    4 type  2   force =     0.00015167    0.00074501   -0.00040151
     atom    5 type  2   force =     0.00014825   -0.00072108   -0.00043460
     atom    6 type  2   force =     0.00044772   -0.00003163    0.00073188
     atom    7 type  2   force =    -0.00017111    0.00060127    0.00020952
     atom    8 type  2   force =    -0.00016136   -0.00061360    0.00018044
     atom    9 type  2   force =     0.00015981   -0.00058773   -0.00019158
     atom   10 type  2   force =     0.00016999    0.00060836   -0.00018858
     atom   11 type  1   force =     0.01377132   -0.00000092   -0.00668715
     atom   12 type  2   force =    -0.00045510   -0.00007120   -0.00072832
     atom   13 type  2   force =    -0.00016309    0.00076762    0.00037229
     atom   14 type  2   force =    -0.00013399   -0.00070673    0.00045201

     Total force =     0.033101     Total SCF correction =     0.000000

     Writing output data file ./Buthane.save/

     init_run     :      0.53s CPU      0.56s WALL (       1 calls)
     electrons    :      8.74s CPU      8.97s WALL (       1 calls)
     forces       :      0.38s CPU      0.39s WALL (       1 calls)

     Called by init_run:
     wfcinit      :      0.21s CPU      0.22s WALL (       1 calls)
     potinit      :      0.21s CPU      0.22s WALL (       1 calls)
     hinit0       :      0.08s CPU      0.09s WALL (       1 calls)

     Called by electrons:
     c_bands      :      5.17s CPU      5.22s WALL (      16 calls)
     sum_band     :      1.15s CPU      1.15s WALL (      16 calls)
     v_of_rho     :      1.98s CPU      2.17s WALL (      17 calls)
     mix_rho      :      0.49s CPU      0.49s WALL (      16 calls)

     Called by c_bands:
     init_us_2    :      0.09s CPU      0.10s WALL (      33 calls)
     regterg      :      5.05s CPU      5.10s WALL (      16 calls)

     Called by *egterg:
     rdiaghg      :      0.03s CPU      0.03s WALL (      50 calls)
     h_psi        :      4.57s CPU      4.63s WALL (      51 calls)
     g_psi        :      0.01s CPU      0.01s WALL (      34 calls)

     Called by h_psi:
     h_psi:calbec :      0.64s CPU      0.64s WALL (      51 calls)
     vloc_psi     :      3.41s CPU      3.46s WALL (      51 calls)
     add_vuspsi   :      0.50s CPU      0.51s WALL (      51 calls)

     General routines
     calbec       :      0.69s CPU      0.69s WALL (      55 calls)
     fft          :      1.38s CPU      1.41s WALL (     144 calls)
     ffts         :      0.16s CPU      0.16s WALL (      16 calls)
     fftw         :      3.20s CPU      3.24s WALL (     764 calls)

     Parallel routines

     PWSCF        :      9.72s CPU     10.01s WALL


   This run was terminated on:   1:12:37  24May2021            

=------------------------------------------------------------------------------=
   JOB DONE.
=------------------------------------------------------------------------------=
