
     Program PWSCF v.6.7GPU starts on 24May2021 at  1:12:14 

     This program is part of the open-source Quantum ESPRESSO suite
     for quantum simulation of materials; please cite
         "P. Giannozzi et al., J. Phys.:Condens. Matter 21 395502 (2009);
         "P. Giannozzi et al., J. Phys.:Condens. Matter 29 465901 (2017);
         "P. Giannozzi et al., J. Chem. Phys. 152 154105 (2020);
          URL http://www.quantum-espresso.org", 
     in publications or presentations arising from this work. More details at
     http://www.quantum-espresso.org/quote

     Parallel version (MPI), running on     4 processors

     MPI processes distributed on     1 nodes
     R & G space division:  proc/nbgrp/npool/nimage =       4
     Waiting for input...
     Reading input from standard input
     Message from routine read_cards :
     DEPRECATED: no units specified in CELL_PARAMETERS card

     Current dimensions of program PWSCF are:
     Max number of different atomic species (ntypx) = 10
     Max number of k-points (npk) =  40000
     Max angular momentum in pseudopotentials (lmaxx) =  3

     gamma-point specific algorithms are used

     Subspace diagonalization in iterative solution of the eigenvalue problem:
     one sub-group per band group will be used
     scalapack distributed-memory algorithm (size of sub-group:  2*  2 procs)


     Parallelization info
     --------------------
     sticks:   dense  smooth     PW     G-vecs:    dense   smooth      PW
     Min         951     951    236                44375    44375    5524
     Max         954     954    238                44382    44382    5534
     Sum        3809    3809    949               177509   177509   22119

     Using Slab Decomposition



     bravais-lattice index     =            0
     lattice parameter (alat)  =      20.0000  a.u.
     unit-cell volume          =    8000.0000 (a.u.)^3
     number of atoms/cell      =           14
     number of atomic types    =            2
     number of electrons       =        26.00
     number of Kohn-Sham states=           13
     kinetic-energy cutoff     =      30.0000  Ry
     charge density cutoff     =     120.0000  Ry
     scf convergence threshold =      1.0E-12
     mixing beta               =       0.5000
     number of iterations used =            8  plain     mixing
     Exchange-correlation= PBE
                           (   1   4   3   4   0   0   0)

     celldm(1)=  20.000000  celldm(2)=   0.000000  celldm(3)=   0.000000
     celldm(4)=   0.000000  celldm(5)=   0.000000  celldm(6)=   0.000000

     crystal axes: (cart. coord. in units of alat)
               a(1) = (   1.000000   0.000000   0.000000 )  
               a(2) = (   0.000000   1.000000   0.000000 )  
               a(3) = (   0.000000   0.000000   1.000000 )  

     reciprocal axes: (cart. coord. in units 2 pi/alat)
               b(1) = (  1.000000  0.000000  0.000000 )  
               b(2) = (  0.000000  1.000000  0.000000 )  
               b(3) = (  0.000000  0.000000  1.000000 )  


     PseudoPot. # 1 for C  read from file:
     /home/ciga/builds/pseudo_potentials/C.upf
     MD5 check sum: d80ec9912146af6c4c1760317d1f95e9
     Pseudo is Norm-conserving + core correction, Zval =  4.0
     Generated using ONCVPSP code by D. R. Hamann
     Using radial grid of 1248 points,  4 beta functions with: 
                l(1) =   0
                l(2) =   0
                l(3) =   1
                l(4) =   1

     PseudoPot. # 2 for H  read from file:
     /home/ciga/builds/pseudo_potentials/H.upf
     MD5 check sum: 418cee52d0c413ae40802e6cc37ab9e3
     Pseudo is Norm-conserving, Zval =  1.0
     Generated using ONCVPSP code by D. R. Hamann
     Using radial grid of 1166 points,  3 beta functions with: 
                l(1) =   0
                l(2) =   0
                l(3) =   1

     atomic species   valence    mass     pseudopotential
        C              4.00    12.01070     C ( 1.00)
        H              1.00     1.00794     H ( 1.00)

     No symmetry found



   Cartesian axes

     site n.     atom                  positions (alat units)
         1           C   tau(   1) = (  -0.0538477   0.0001013  -0.0482474  )
         2           C   tau(   2) = (  -0.1849512  -0.0000971   0.0123790  )
         3           C   tau(   3) = (   0.0538490   0.0001009   0.0482523  )
         4           H   tau(   4) = (  -0.1986090  -0.0840791   0.0720042  )
         5           H   tau(   5) = (  -0.1985342   0.0833947   0.0727081  )
         6           H   tau(   6) = (  -0.2602361   0.0002431  -0.0590752  )
         7           H   tau(   7) = (  -0.0438729  -0.0829300  -0.1103678  )
         8           H   tau(   8) = (  -0.0440152   0.0833250  -0.1101304  )
         9           H   tau(   9) = (   0.0440164   0.0833191   0.1101411  )
        10           H   tau(  10) = (   0.0438795  -0.0829346   0.1103664  )
        11           C   tau(  11) = (   0.1849499  -0.0000971  -0.0123831  )
        12           H   tau(  12) = (   0.2602422   0.0006557   0.0590606  )
        13           H   tau(  13) = (   0.1987544  -0.0842815  -0.0716874  )
        14           H   tau(  14) = (   0.1983749   0.0831906  -0.0730295  )

     number of k points=     1
                       cart. coord. in units 2pi/alat
        k(    1) = (   0.0000000   0.0000000   0.0000000), wk =   2.0000000

     Dense  grid:    88755 G-vectors     FFT dimensions: (  72,  72,  72)

     Estimated max dynamical RAM per process >      23.05 MB

     Estimated total dynamical RAM >      92.21 MB

     Initial potential from superposition of free atoms

     starting charge   25.99973, renormalised to   26.00000

     negative rho (up, down):  7.870E-03 0.000E+00
     Starting wfcs are   26 randomized atomic wfcs

     total cpu time spent up to now is        0.4 secs

     Self-consistent Calculation

     iteration #  1     ecut=    30.00 Ry     beta= 0.50
     Davidson diagonalization with overlap
     ethr =  1.00E-02,  avg # of iterations =  2.0

     negative rho (up, down):  3.756E-03 0.000E+00

     total cpu time spent up to now is        0.7 secs

     total energy              =     -59.30101837 Ry
     estimated scf accuracy    <       1.37119811 Ry

     iteration #  2     ecut=    30.00 Ry     beta= 0.50
     Davidson diagonalization with overlap
     ethr =  5.27E-03,  avg # of iterations =  2.0

     negative rho (up, down):  1.689E-03 0.000E+00

     total cpu time spent up to now is        1.1 secs

     total energy              =     -59.50681740 Ry
     estimated scf accuracy    <       0.11103493 Ry

     iteration #  3     ecut=    30.00 Ry     beta= 0.50
     Davidson diagonalization with overlap
     ethr =  4.27E-04,  avg # of iterations =  1.0

     negative rho (up, down):  6.589E-05 0.000E+00

     total cpu time spent up to now is        1.3 secs

     total energy              =     -59.50011366 Ry
     estimated scf accuracy    <       0.02370288 Ry

     iteration #  4     ecut=    30.00 Ry     beta= 0.50
     Davidson diagonalization with overlap
     ethr =  9.12E-05,  avg # of iterations =  2.0

     negative rho (up, down):  3.817E-05 0.000E+00

     total cpu time spent up to now is        1.6 secs

     total energy              =     -59.50260003 Ry
     estimated scf accuracy    <       0.00265651 Ry

     iteration #  5     ecut=    30.00 Ry     beta= 0.50
     Davidson diagonalization with overlap
     ethr =  1.02E-05,  avg # of iterations =  2.0

     negative rho (up, down):  8.248E-08 0.000E+00

     total cpu time spent up to now is        2.0 secs

     total energy              =     -59.50322262 Ry
     estimated scf accuracy    <       0.00092489 Ry

     iteration #  6     ecut=    30.00 Ry     beta= 0.50
     Davidson diagonalization with overlap
     ethr =  3.56E-06,  avg # of iterations =  2.0

     negative rho (up, down):  1.290E-08 0.000E+00

     total cpu time spent up to now is        2.3 secs

     total energy              =     -59.50348010 Ry
     estimated scf accuracy    <       0.00025419 Ry

     iteration #  7     ecut=    30.00 Ry     beta= 0.50
     Davidson diagonalization with overlap
     ethr =  9.78E-07,  avg # of iterations =  2.0

     total cpu time spent up to now is        2.6 secs

     total energy              =     -59.50351980 Ry
     estimated scf accuracy    <       0.00000265 Ry

     iteration #  8     ecut=    30.00 Ry     beta= 0.50
     Davidson diagonalization with overlap
     ethr =  1.02E-08,  avg # of iterations =  3.0

     total cpu time spent up to now is        3.0 secs

     total energy              =     -59.50352222 Ry
     estimated scf accuracy    <       0.00000042 Ry

     iteration #  9     ecut=    30.00 Ry     beta= 0.50
     Davidson diagonalization with overlap
     ethr =  1.62E-09,  avg # of iterations =  2.0

     total cpu time spent up to now is        3.3 secs

     total energy              =     -59.50352203 Ry
     estimated scf accuracy    <       0.00000053 Ry

     iteration # 10     ecut=    30.00 Ry     beta= 0.50
     Davidson diagonalization with overlap
     ethr =  1.62E-09,  avg # of iterations =  2.0

     total cpu time spent up to now is        3.6 secs

     total energy              =     -59.50352211 Ry
     estimated scf accuracy    <          8.9E-09 Ry

     iteration # 11     ecut=    30.00 Ry     beta= 0.50
     Davidson diagonalization with overlap
     ethr =  3.44E-11,  avg # of iterations =  3.0

     total cpu time spent up to now is        4.0 secs

     total energy              =     -59.50352211 Ry
     estimated scf accuracy    <          1.1E-09 Ry

     iteration # 12     ecut=    30.00 Ry     beta= 0.50
     Davidson diagonalization with overlap
     ethr =  4.11E-12,  avg # of iterations =  2.0

     total cpu time spent up to now is        4.3 secs

     total energy              =     -59.50352211 Ry
     estimated scf accuracy    <          3.9E-10 Ry

     iteration # 13     ecut=    30.00 Ry     beta= 0.50
     Davidson diagonalization with overlap
     ethr =  1.51E-12,  avg # of iterations =  3.0

     total cpu time spent up to now is        4.6 secs

     total energy              =     -59.50352211 Ry
     estimated scf accuracy    <          3.1E-11 Ry

     iteration # 14     ecut=    30.00 Ry     beta= 0.50
     Davidson diagonalization with overlap
     ethr =  1.18E-13,  avg # of iterations =  3.0

     total cpu time spent up to now is        5.0 secs

     total energy              =     -59.50352211 Ry
     estimated scf accuracy    <          1.1E-11 Ry

     iteration # 15     ecut=    30.00 Ry     beta= 0.50
     Davidson diagonalization with overlap
     ethr =  1.00E-13,  avg # of iterations =  1.0

     total cpu time spent up to now is        5.2 secs

     End of self-consistent calculation

          k = 0.0000 0.0000 0.0000 ( 11060 PWs)   bands (ev):

   -19.3696 -17.5247 -15.0862 -13.6725 -10.9502  -9.8645  -9.7208  -9.4329
    -8.3404  -7.8431  -7.5084  -7.1718  -7.1072

     highest occupied level (ev):    -7.1072

!    total energy              =     -59.50352211 Ry
     estimated scf accuracy    <          6.2E-13 Ry

     The total energy is the sum of the following terms:
     one-electron contribution =    -202.45917496 Ry
     hartree contribution      =     104.60550453 Ry
     xc contribution           =     -24.15613701 Ry
     ewald contribution        =      62.50628533 Ry

     convergence has been achieved in  15 iterations

     Forces acting on atoms (cartesian axes, Ry/au):

     atom    1 type  1   force =    -0.00339537   -0.00005812    0.01864016
     atom    2 type  1   force =     0.01363261    0.00002299   -0.00813660
     atom    3 type  1   force =     0.00340539   -0.00002666   -0.01865730
     atom    4 type  2   force =    -0.00244046   -0.01443205    0.01061865
     atom    5 type  2   force =    -0.00243164    0.01437425    0.01071298
     atom    6 type  2   force =    -0.01360247    0.00003825   -0.01236504
     atom    7 type  2   force =     0.00189398   -0.01385644   -0.01074122
     atom    8 type  2   force =     0.00187542    0.01387612   -0.01072950
     atom    9 type  2   force =    -0.00187718    0.01390297    0.01072040
     atom   10 type  2   force =    -0.00189429   -0.01385142    0.01076236
     atom   11 type  1   force =    -0.01363473    0.00001366    0.00815119
     atom   12 type  2   force =     0.01359614    0.00008530    0.01236646
     atom   13 type  2   force =     0.00245654   -0.01444351   -0.01059046
     atom   14 type  2   force =     0.00241607    0.01435467   -0.01075207

     Total force =     0.066728     Total SCF correction =     0.000001

     Writing output data file ./Buthane.save/

     init_run     :      0.32s CPU      0.35s WALL (       1 calls)
     electrons    :      4.72s CPU      4.82s WALL (       1 calls)
     forces       :      0.25s CPU      0.25s WALL (       1 calls)

     Called by init_run:
     wfcinit      :      0.11s CPU      0.12s WALL (       1 calls)
     potinit      :      0.13s CPU      0.15s WALL (       1 calls)
     hinit0       :      0.06s CPU      0.06s WALL (       1 calls)

     Called by electrons:
     c_bands      :      2.72s CPU      2.76s WALL (      15 calls)
     sum_band     :      0.58s CPU      0.59s WALL (      15 calls)
     v_of_rho     :      1.19s CPU      1.27s WALL (      16 calls)
     mix_rho      :      0.24s CPU      0.24s WALL (      15 calls)

     Called by c_bands:
     init_us_2    :      0.06s CPU      0.06s WALL (      31 calls)
     regterg      :      2.65s CPU      2.68s WALL (      15 calls)

     Called by *egterg:
     rdiaghg      :      0.03s CPU      0.03s WALL (      47 calls)
     h_psi        :      2.38s CPU      2.41s WALL (      48 calls)
     g_psi        :      0.01s CPU      0.01s WALL (      32 calls)

     Called by h_psi:
     h_psi:calbec :      0.38s CPU      0.38s WALL (      48 calls)
     vloc_psi     :      1.69s CPU      1.71s WALL (      48 calls)
     add_vuspsi   :      0.31s CPU      0.31s WALL (      48 calls)

     General routines
     calbec       :      0.42s CPU      0.42s WALL (      52 calls)
     fft          :      0.66s CPU      0.68s WALL (     136 calls)
     ffts         :      0.08s CPU      0.08s WALL (      15 calls)
     fftw         :      1.52s CPU      1.54s WALL (     729 calls)

     Parallel routines

     PWSCF        :      5.36s CPU      5.50s WALL


   This run was terminated on:   1:12:20  24May2021            

=------------------------------------------------------------------------------=
   JOB DONE.
=------------------------------------------------------------------------------=
