
     Program PWSCF v.6.7GPU starts on 24May2021 at  1:15: 6 

     This program is part of the open-source Quantum ESPRESSO suite
     for quantum simulation of materials; please cite
         "P. Giannozzi et al., J. Phys.:Condens. Matter 21 395502 (2009);
         "P. Giannozzi et al., J. Phys.:Condens. Matter 29 465901 (2017);
         "P. Giannozzi et al., J. Chem. Phys. 152 154105 (2020);
          URL http://www.quantum-espresso.org", 
     in publications or presentations arising from this work. More details at
     http://www.quantum-espresso.org/quote

     Parallel version (MPI), running on     4 processors

     MPI processes distributed on     1 nodes
     R & G space division:  proc/nbgrp/npool/nimage =       4
     Waiting for input...
     Reading input from standard input
     Message from routine read_cards :
     DEPRECATED: no units specified in CELL_PARAMETERS card

     Current dimensions of program PWSCF are:
     Max number of different atomic species (ntypx) = 10
     Max number of k-points (npk) =  40000
     Max angular momentum in pseudopotentials (lmaxx) =  3

     gamma-point specific algorithms are used

     Subspace diagonalization in iterative solution of the eigenvalue problem:
     one sub-group per band group will be used
     scalapack distributed-memory algorithm (size of sub-group:  2*  2 procs)


     Parallelization info
     --------------------
     sticks:   dense  smooth     PW     G-vecs:    dense   smooth      PW
     Min        2543    2543    637               193371   193371   24241
     Max        2548    2548    642               193374   193374   24244
     Sum       10185   10185   2561               773489   773489   96969

     Using Slab Decomposition



     bravais-lattice index     =            0
     lattice parameter (alat)  =      20.0000  a.u.
     unit-cell volume          =    8000.0000 (a.u.)^3
     number of atoms/cell      =           14
     number of atomic types    =            2
     number of electrons       =        26.00
     number of Kohn-Sham states=           13
     kinetic-energy cutoff     =      80.0000  Ry
     charge density cutoff     =     320.0000  Ry
     scf convergence threshold =      1.0E-12
     mixing beta               =       0.5000
     number of iterations used =            8  plain     mixing
     Exchange-correlation= PBE
                           (   1   4   3   4   0   0   0)

     celldm(1)=  20.000000  celldm(2)=   0.000000  celldm(3)=   0.000000
     celldm(4)=   0.000000  celldm(5)=   0.000000  celldm(6)=   0.000000

     crystal axes: (cart. coord. in units of alat)
               a(1) = (   1.000000   0.000000   0.000000 )  
               a(2) = (   0.000000   1.000000   0.000000 )  
               a(3) = (   0.000000   0.000000   1.000000 )  

     reciprocal axes: (cart. coord. in units 2 pi/alat)
               b(1) = (  1.000000  0.000000  0.000000 )  
               b(2) = (  0.000000  1.000000  0.000000 )  
               b(3) = (  0.000000  0.000000  1.000000 )  


     PseudoPot. # 1 for C  read from file:
     /home/ciga/builds/pseudo_potentials/C.upf
     MD5 check sum: d80ec9912146af6c4c1760317d1f95e9
     Pseudo is Norm-conserving + core correction, Zval =  4.0
     Generated using ONCVPSP code by D. R. Hamann
     Using radial grid of 1248 points,  4 beta functions with: 
                l(1) =   0
                l(2) =   0
                l(3) =   1
                l(4) =   1

     PseudoPot. # 2 for H  read from file:
     /home/ciga/builds/pseudo_potentials/H.upf
     MD5 check sum: 418cee52d0c413ae40802e6cc37ab9e3
     Pseudo is Norm-conserving, Zval =  1.0
     Generated using ONCVPSP code by D. R. Hamann
     Using radial grid of 1166 points,  3 beta functions with: 
                l(1) =   0
                l(2) =   0
                l(3) =   1

     atomic species   valence    mass     pseudopotential
        C              4.00    12.01070     C ( 1.00)
        H              1.00     1.00794     H ( 1.00)

     No symmetry found



   Cartesian axes

     site n.     atom                  positions (alat units)
         1           C   tau(   1) = (  -0.0538477   0.0001013  -0.0482474  )
         2           C   tau(   2) = (  -0.1849512  -0.0000971   0.0123790  )
         3           C   tau(   3) = (   0.0538490   0.0001009   0.0482523  )
         4           H   tau(   4) = (  -0.1986090  -0.0840791   0.0720042  )
         5           H   tau(   5) = (  -0.1985342   0.0833947   0.0727081  )
         6           H   tau(   6) = (  -0.2602361   0.0002431  -0.0590752  )
         7           H   tau(   7) = (  -0.0438729  -0.0829300  -0.1103678  )
         8           H   tau(   8) = (  -0.0440152   0.0833250  -0.1101304  )
         9           H   tau(   9) = (   0.0440164   0.0833191   0.1101411  )
        10           H   tau(  10) = (   0.0438795  -0.0829346   0.1103664  )
        11           C   tau(  11) = (   0.1849499  -0.0000971  -0.0123831  )
        12           H   tau(  12) = (   0.2602422   0.0006557   0.0590606  )
        13           H   tau(  13) = (   0.1987544  -0.0842815  -0.0716874  )
        14           H   tau(  14) = (   0.1983749   0.0831906  -0.0730295  )

     number of k points=     1
                       cart. coord. in units 2pi/alat
        k(    1) = (   0.0000000   0.0000000   0.0000000), wk =   2.0000000

     Dense  grid:   386745 G-vectors     FFT dimensions: ( 120, 120, 120)

     Estimated max dynamical RAM per process >     100.75 MB

     Estimated total dynamical RAM >     403.02 MB

     Initial potential from superposition of free atoms

     starting charge   25.99973, renormalised to   26.00000

     negative rho (up, down):  5.130E-05 0.000E+00
     Starting wfcs are   26 randomized atomic wfcs

     total cpu time spent up to now is        1.7 secs

     Self-consistent Calculation

     iteration #  1     ecut=    80.00 Ry     beta= 0.50
     Davidson diagonalization with overlap
     ethr =  1.00E-02,  avg # of iterations =  2.0

     negative rho (up, down):  1.311E-05 0.000E+00

     total cpu time spent up to now is        3.6 secs

     total energy              =     -59.76708192 Ry
     estimated scf accuracy    <       1.68336796 Ry

     iteration #  2     ecut=    80.00 Ry     beta= 0.50
     Davidson diagonalization with overlap
     ethr =  6.47E-03,  avg # of iterations =  2.0

     negative rho (up, down):  4.188E-06 0.000E+00

     total cpu time spent up to now is        5.4 secs

     total energy              =     -60.06803343 Ry
     estimated scf accuracy    <       0.12207601 Ry

     iteration #  3     ecut=    80.00 Ry     beta= 0.50
     Davidson diagonalization with overlap
     ethr =  4.70E-04,  avg # of iterations =  1.0

     negative rho (up, down):  2.084E-07 0.000E+00

     total cpu time spent up to now is        6.8 secs

     total energy              =     -60.05948251 Ry
     estimated scf accuracy    <       0.02882094 Ry

     iteration #  4     ecut=    80.00 Ry     beta= 0.50
     Davidson diagonalization with overlap
     ethr =  1.11E-04,  avg # of iterations =  2.0

     negative rho (up, down):  7.722E-08 0.000E+00

     total cpu time spent up to now is        8.6 secs

     total energy              =     -60.06236589 Ry
     estimated scf accuracy    <       0.00440678 Ry

     iteration #  5     ecut=    80.00 Ry     beta= 0.50
     Davidson diagonalization with overlap
     ethr =  1.69E-05,  avg # of iterations =  2.0

     total cpu time spent up to now is       10.4 secs

     total energy              =     -60.06345576 Ry
     estimated scf accuracy    <       0.00139392 Ry

     iteration #  6     ecut=    80.00 Ry     beta= 0.50
     Davidson diagonalization with overlap
     ethr =  5.36E-06,  avg # of iterations =  2.0

     total cpu time spent up to now is       12.3 secs

     total energy              =     -60.06385117 Ry
     estimated scf accuracy    <       0.00033903 Ry

     iteration #  7     ecut=    80.00 Ry     beta= 0.50
     Davidson diagonalization with overlap
     ethr =  1.30E-06,  avg # of iterations =  2.0

     total cpu time spent up to now is       14.1 secs

     total energy              =     -60.06390321 Ry
     estimated scf accuracy    <       0.00000418 Ry

     iteration #  8     ecut=    80.00 Ry     beta= 0.50
     Davidson diagonalization with overlap
     ethr =  1.61E-08,  avg # of iterations =  4.0

     total cpu time spent up to now is       16.3 secs

     total energy              =     -60.06390797 Ry
     estimated scf accuracy    <       0.00000326 Ry

     iteration #  9     ecut=    80.00 Ry     beta= 0.50
     Davidson diagonalization with overlap
     ethr =  1.25E-08,  avg # of iterations =  1.0

     total cpu time spent up to now is       17.8 secs

     total energy              =     -60.06390728 Ry
     estimated scf accuracy    <       0.00000129 Ry

     iteration # 10     ecut=    80.00 Ry     beta= 0.50
     Davidson diagonalization with overlap
     ethr =  4.94E-09,  avg # of iterations =  2.0

     total cpu time spent up to now is       19.7 secs

     total energy              =     -60.06390776 Ry
     estimated scf accuracy    <       0.00000013 Ry

     iteration # 11     ecut=    80.00 Ry     beta= 0.50
     Davidson diagonalization with overlap
     ethr =  5.18E-10,  avg # of iterations =  1.0

     total cpu time spent up to now is       21.2 secs

     total energy              =     -60.06390775 Ry
     estimated scf accuracy    <       0.00000005 Ry

     iteration # 12     ecut=    80.00 Ry     beta= 0.50
     Davidson diagonalization with overlap
     ethr =  2.03E-10,  avg # of iterations =  2.0

     total cpu time spent up to now is       23.0 secs

     total energy              =     -60.06390776 Ry
     estimated scf accuracy    <          1.5E-09 Ry

     iteration # 13     ecut=    80.00 Ry     beta= 0.50
     Davidson diagonalization with overlap
     ethr =  5.88E-12,  avg # of iterations =  2.0

     total cpu time spent up to now is       24.8 secs

     total energy              =     -60.06390776 Ry
     estimated scf accuracy    <          1.9E-09 Ry

     iteration # 14     ecut=    80.00 Ry     beta= 0.50
     Davidson diagonalization with overlap
     ethr =  5.88E-12,  avg # of iterations =  2.0

     total cpu time spent up to now is       26.6 secs

     total energy              =     -60.06390776 Ry
     estimated scf accuracy    <          7.3E-11 Ry

     iteration # 15     ecut=    80.00 Ry     beta= 0.50
     Davidson diagonalization with overlap
     ethr =  2.82E-13,  avg # of iterations =  2.0

     total cpu time spent up to now is       28.3 secs

     total energy              =     -60.06390776 Ry
     estimated scf accuracy    <          3.5E-11 Ry

     iteration # 16     ecut=    80.00 Ry     beta= 0.50
     Davidson diagonalization with overlap
     ethr =  1.34E-13,  avg # of iterations =  2.0

     total cpu time spent up to now is       29.9 secs

     total energy              =     -60.06390776 Ry
     estimated scf accuracy    <          6.5E-12 Ry

     iteration # 17     ecut=    80.00 Ry     beta= 0.50
     Davidson diagonalization with overlap
     ethr =  1.00E-13,  avg # of iterations =  2.0

     total cpu time spent up to now is       31.4 secs

     End of self-consistent calculation

          k = 0.0000 0.0000 0.0000 ( 48485 PWs)   bands (ev):

   -19.1377 -17.3312 -14.9379 -13.5619 -10.9166  -9.8609  -9.7129  -9.4283
    -8.3627  -7.8567  -7.5475  -7.2158  -7.1249

     highest occupied level (ev):    -7.1249

!    total energy              =     -60.06390776 Ry
     estimated scf accuracy    <          1.7E-13 Ry

     The total energy is the sum of the following terms:
     one-electron contribution =    -203.46536847 Ry
     hartree contribution      =     105.22623829 Ry
     xc contribution           =     -24.33106291 Ry
     ewald contribution        =      62.50628533 Ry

     convergence has been achieved in  17 iterations

     Forces acting on atoms (cartesian axes, Ry/au):

     atom    1 type  1   force =     0.00025667   -0.00002072   -0.00189533
     atom    2 type  1   force =    -0.00158525    0.00000745    0.00055793
     atom    3 type  1   force =    -0.00024462    0.00001172    0.00187902
     atom    4 type  2   force =     0.00024135    0.00090214   -0.00062194
     atom    5 type  2   force =     0.00023850   -0.00087737   -0.00065452
     atom    6 type  2   force =     0.00091061   -0.00003154    0.00084147
     atom    7 type  2   force =    -0.00020196    0.00088244    0.00063879
     atom    8 type  2   force =    -0.00019511   -0.00089639    0.00060945
     atom    9 type  2   force =     0.00019329   -0.00087084   -0.00062046
     atom   10 type  2   force =     0.00020116    0.00088930   -0.00061799
     atom   11 type  1   force =     0.00158017    0.00001374   -0.00054337
     atom   12 type  2   force =    -0.00091778   -0.00007071   -0.00083777
     atom   13 type  2   force =    -0.00025193    0.00092434    0.00059257
     atom   14 type  2   force =    -0.00022510   -0.00086357    0.00067218

     Total force =     0.005081     Total SCF correction =     0.000001

     Writing output data file ./Buthane.save/

     init_run     :      1.59s CPU      1.66s WALL (       1 calls)
     electrons    :     29.05s CPU     29.64s WALL (       1 calls)
     forces       :      1.04s CPU      1.09s WALL (       1 calls)

     Called by init_run:
     wfcinit      :      0.67s CPU      0.69s WALL (       1 calls)
     potinit      :      0.56s CPU      0.59s WALL (       1 calls)
     hinit0       :      0.22s CPU      0.23s WALL (       1 calls)

     Called by electrons:
     c_bands      :     16.83s CPU     16.95s WALL (      17 calls)
     sum_band     :      3.96s CPU      3.99s WALL (      17 calls)
     v_of_rho     :      6.57s CPU      6.98s WALL (      18 calls)
     mix_rho      :      1.88s CPU      1.92s WALL (      17 calls)

     Called by c_bands:
     init_us_2    :      0.28s CPU      0.29s WALL (      35 calls)
     regterg      :     16.48s CPU     16.60s WALL (      17 calls)

     Called by *egterg:
     rdiaghg      :      0.04s CPU      0.04s WALL (      50 calls)
     h_psi        :     14.85s CPU     14.96s WALL (      51 calls)
     g_psi        :      0.03s CPU      0.03s WALL (      33 calls)

     Called by h_psi:
     h_psi:calbec :      1.78s CPU      1.78s WALL (      51 calls)
     vloc_psi     :     11.54s CPU     11.64s WALL (      51 calls)
     add_vuspsi   :      1.45s CPU      1.45s WALL (      51 calls)

     General routines
     calbec       :      1.92s CPU      1.94s WALL (      55 calls)
     fft          :      4.52s CPU      4.62s WALL (     152 calls)
     ffts         :      0.49s CPU      0.49s WALL (      17 calls)
     fftw         :     10.94s CPU     11.03s WALL (     787 calls)

     Parallel routines

     PWSCF        :     31.77s CPU     32.52s WALL


   This run was terminated on:   1:15:39  24May2021            

=------------------------------------------------------------------------------=
   JOB DONE.
=------------------------------------------------------------------------------=
