
     Program PWSCF v.6.7GPU starts on 24May2021 at  1:16:14 

     This program is part of the open-source Quantum ESPRESSO suite
     for quantum simulation of materials; please cite
         "P. Giannozzi et al., J. Phys.:Condens. Matter 21 395502 (2009);
         "P. Giannozzi et al., J. Phys.:Condens. Matter 29 465901 (2017);
         "P. Giannozzi et al., J. Chem. Phys. 152 154105 (2020);
          URL http://www.quantum-espresso.org", 
     in publications or presentations arising from this work. More details at
     http://www.quantum-espresso.org/quote

     Parallel version (MPI), running on     4 processors

     MPI processes distributed on     1 nodes
     R & G space division:  proc/nbgrp/npool/nimage =       4
     Waiting for input...
     Reading input from standard input
     Message from routine read_cards :
     DEPRECATED: no units specified in CELL_PARAMETERS card

     Current dimensions of program PWSCF are:
     Max number of different atomic species (ntypx) = 10
     Max number of k-points (npk) =  40000
     Max angular momentum in pseudopotentials (lmaxx) =  3

     gamma-point specific algorithms are used

     Subspace diagonalization in iterative solution of the eigenvalue problem:
     one sub-group per band group will be used
     scalapack distributed-memory algorithm (size of sub-group:  2*  2 procs)


     Parallelization info
     --------------------
     sticks:   dense  smooth     PW     G-vecs:    dense   smooth      PW
     Min        2862    2862    716               230578   230578   28824
     Max        2863    2863    718               230586   230586   28830
     Sum       11449   11449   2869               922329   922329  115313

     Using Slab Decomposition



     bravais-lattice index     =            0
     lattice parameter (alat)  =      20.0000  a.u.
     unit-cell volume          =    8000.0000 (a.u.)^3
     number of atoms/cell      =           14
     number of atomic types    =            2
     number of electrons       =        26.00
     number of Kohn-Sham states=           13
     kinetic-energy cutoff     =      90.0000  Ry
     charge density cutoff     =     360.0000  Ry
     scf convergence threshold =      1.0E-12
     mixing beta               =       0.5000
     number of iterations used =            8  plain     mixing
     Exchange-correlation= PBE
                           (   1   4   3   4   0   0   0)

     celldm(1)=  20.000000  celldm(2)=   0.000000  celldm(3)=   0.000000
     celldm(4)=   0.000000  celldm(5)=   0.000000  celldm(6)=   0.000000

     crystal axes: (cart. coord. in units of alat)
               a(1) = (   1.000000   0.000000   0.000000 )  
               a(2) = (   0.000000   1.000000   0.000000 )  
               a(3) = (   0.000000   0.000000   1.000000 )  

     reciprocal axes: (cart. coord. in units 2 pi/alat)
               b(1) = (  1.000000  0.000000  0.000000 )  
               b(2) = (  0.000000  1.000000  0.000000 )  
               b(3) = (  0.000000  0.000000  1.000000 )  


     PseudoPot. # 1 for C  read from file:
     /home/ciga/builds/pseudo_potentials/C.upf
     MD5 check sum: d80ec9912146af6c4c1760317d1f95e9
     Pseudo is Norm-conserving + core correction, Zval =  4.0
     Generated using ONCVPSP code by D. R. Hamann
     Using radial grid of 1248 points,  4 beta functions with: 
                l(1) =   0
                l(2) =   0
                l(3) =   1
                l(4) =   1

     PseudoPot. # 2 for H  read from file:
     /home/ciga/builds/pseudo_potentials/H.upf
     MD5 check sum: 418cee52d0c413ae40802e6cc37ab9e3
     Pseudo is Norm-conserving, Zval =  1.0
     Generated using ONCVPSP code by D. R. Hamann
     Using radial grid of 1166 points,  3 beta functions with: 
                l(1) =   0
                l(2) =   0
                l(3) =   1

     atomic species   valence    mass     pseudopotential
        C              4.00    12.01070     C ( 1.00)
        H              1.00     1.00794     H ( 1.00)

     No symmetry found



   Cartesian axes

     site n.     atom                  positions (alat units)
         1           C   tau(   1) = (  -0.0538477   0.0001013  -0.0482474  )
         2           C   tau(   2) = (  -0.1849512  -0.0000971   0.0123790  )
         3           C   tau(   3) = (   0.0538490   0.0001009   0.0482523  )
         4           H   tau(   4) = (  -0.1986090  -0.0840791   0.0720042  )
         5           H   tau(   5) = (  -0.1985342   0.0833947   0.0727081  )
         6           H   tau(   6) = (  -0.2602361   0.0002431  -0.0590752  )
         7           H   tau(   7) = (  -0.0438729  -0.0829300  -0.1103678  )
         8           H   tau(   8) = (  -0.0440152   0.0833250  -0.1101304  )
         9           H   tau(   9) = (   0.0440164   0.0833191   0.1101411  )
        10           H   tau(  10) = (   0.0438795  -0.0829346   0.1103664  )
        11           C   tau(  11) = (   0.1849499  -0.0000971  -0.0123831  )
        12           H   tau(  12) = (   0.2602422   0.0006557   0.0590606  )
        13           H   tau(  13) = (   0.1987544  -0.0842815  -0.0716874  )
        14           H   tau(  14) = (   0.1983749   0.0831906  -0.0730295  )

     number of k points=     1
                       cart. coord. in units 2pi/alat
        k(    1) = (   0.0000000   0.0000000   0.0000000), wk =   2.0000000

     Dense  grid:   461165 G-vectors     FFT dimensions: ( 125, 125, 125)

     Estimated max dynamical RAM per process >     119.01 MB

     Estimated total dynamical RAM >     476.06 MB

     Initial potential from superposition of free atoms

     starting charge   25.99973, renormalised to   26.00000

     negative rho (up, down):  9.048E-06 0.000E+00
     Starting wfcs are   26 randomized atomic wfcs

     total cpu time spent up to now is        2.1 secs

     Self-consistent Calculation

     iteration #  1     ecut=    90.00 Ry     beta= 0.50
     Davidson diagonalization with overlap
     ethr =  1.00E-02,  avg # of iterations =  2.0

     negative rho (up, down):  4.236E-07 0.000E+00

     total cpu time spent up to now is        4.3 secs

     total energy              =     -59.76839641 Ry
     estimated scf accuracy    <       1.68162278 Ry

     iteration #  2     ecut=    90.00 Ry     beta= 0.50
     Davidson diagonalization with overlap
     ethr =  6.47E-03,  avg # of iterations =  2.0

     negative rho (up, down):  5.749E-08 0.000E+00

     total cpu time spent up to now is        6.5 secs

     total energy              =     -60.06824553 Ry
     estimated scf accuracy    <       0.12167604 Ry

     iteration #  3     ecut=    90.00 Ry     beta= 0.50
     Davidson diagonalization with overlap
     ethr =  4.68E-04,  avg # of iterations =  1.0

     total cpu time spent up to now is        8.3 secs

     total energy              =     -60.05976898 Ry
     estimated scf accuracy    <       0.02868724 Ry

     iteration #  4     ecut=    90.00 Ry     beta= 0.50
     Davidson diagonalization with overlap
     ethr =  1.10E-04,  avg # of iterations =  2.0

     total cpu time spent up to now is       10.4 secs

     total energy              =     -60.06264352 Ry
     estimated scf accuracy    <       0.00433902 Ry

     iteration #  5     ecut=    90.00 Ry     beta= 0.50
     Davidson diagonalization with overlap
     ethr =  1.67E-05,  avg # of iterations =  2.0

     total cpu time spent up to now is       12.6 secs

     total energy              =     -60.06371100 Ry
     estimated scf accuracy    <       0.00139874 Ry

     iteration #  6     ecut=    90.00 Ry     beta= 0.50
     Davidson diagonalization with overlap
     ethr =  5.38E-06,  avg # of iterations =  2.0

     total cpu time spent up to now is       14.8 secs

     total energy              =     -60.06410961 Ry
     estimated scf accuracy    <       0.00034908 Ry

     iteration #  7     ecut=    90.00 Ry     beta= 0.50
     Davidson diagonalization with overlap
     ethr =  1.34E-06,  avg # of iterations =  2.0

     total cpu time spent up to now is       17.0 secs

     total energy              =     -60.06416209 Ry
     estimated scf accuracy    <       0.00000480 Ry

     iteration #  8     ecut=    90.00 Ry     beta= 0.50
     Davidson diagonalization with overlap
     ethr =  1.85E-08,  avg # of iterations =  4.0

     total cpu time spent up to now is       19.7 secs

     total energy              =     -60.06416720 Ry
     estimated scf accuracy    <       0.00000325 Ry

     iteration #  9     ecut=    90.00 Ry     beta= 0.50
     Davidson diagonalization with overlap
     ethr =  1.25E-08,  avg # of iterations =  1.0

     total cpu time spent up to now is       21.5 secs

     total energy              =     -60.06416652 Ry
     estimated scf accuracy    <       0.00000137 Ry

     iteration # 10     ecut=    90.00 Ry     beta= 0.50
     Davidson diagonalization with overlap
     ethr =  5.29E-09,  avg # of iterations =  2.0

     total cpu time spent up to now is       23.8 secs

     total energy              =     -60.06416696 Ry
     estimated scf accuracy    <       0.00000006 Ry

     iteration # 11     ecut=    90.00 Ry     beta= 0.50
     Davidson diagonalization with overlap
     ethr =  2.40E-10,  avg # of iterations =  2.0

     total cpu time spent up to now is       25.7 secs

     total energy              =     -60.06416695 Ry
     estimated scf accuracy    <       0.00000002 Ry

     iteration # 12     ecut=    90.00 Ry     beta= 0.50
     Davidson diagonalization with overlap
     ethr =  7.10E-11,  avg # of iterations =  2.0

     total cpu time spent up to now is       28.0 secs

     total energy              =     -60.06416696 Ry
     estimated scf accuracy    <          1.2E-10 Ry

     iteration # 13     ecut=    90.00 Ry     beta= 0.50
     Davidson diagonalization with overlap
     ethr =  4.44E-13,  avg # of iterations =  5.0

     total cpu time spent up to now is       30.8 secs

     total energy              =     -60.06416696 Ry
     estimated scf accuracy    <          2.1E-11 Ry

     iteration # 14     ecut=    90.00 Ry     beta= 0.50
     Davidson diagonalization with overlap
     ethr =  1.00E-13,  avg # of iterations =  2.0

     total cpu time spent up to now is       33.1 secs

     total energy              =     -60.06416696 Ry
     estimated scf accuracy    <          4.8E-11 Ry

     iteration # 15     ecut=    90.00 Ry     beta= 0.50
     Davidson diagonalization with overlap
     ethr =  1.00E-13,  avg # of iterations =  2.0

     total cpu time spent up to now is       35.3 secs

     total energy              =     -60.06416696 Ry
     estimated scf accuracy    <          2.0E-12 Ry

     iteration # 16     ecut=    90.00 Ry     beta= 0.50
     Davidson diagonalization with overlap
     ethr =  1.00E-13,  avg # of iterations =  1.0

     total cpu time spent up to now is       37.0 secs

     End of self-consistent calculation

          k = 0.0000 0.0000 0.0000 ( 57657 PWs)   bands (ev):

   -19.1376 -17.3311 -14.9378 -13.5617 -10.9165  -9.8609  -9.7128  -9.4283
    -8.3627  -7.8567  -7.5475  -7.2157  -7.1249

     highest occupied level (ev):    -7.1249

!    total energy              =     -60.06416696 Ry
     estimated scf accuracy    <          5.9E-13 Ry

     The total energy is the sum of the following terms:
     one-electron contribution =    -203.46581359 Ry
     hartree contribution      =     105.22655718 Ry
     xc contribution           =     -24.33119588 Ry
     ewald contribution        =      62.50628533 Ry

     convergence has been achieved in  16 iterations

     Forces acting on atoms (cartesian axes, Ry/au):

     atom    1 type  1   force =     0.00025145   -0.00002074   -0.00189263
     atom    2 type  1   force =    -0.00158821    0.00000749    0.00055423
     atom    3 type  1   force =    -0.00023948    0.00001169    0.00187640
     atom    4 type  2   force =     0.00024292    0.00091376   -0.00063025
     atom    5 type  2   force =     0.00024009   -0.00088897   -0.00066295
     atom    6 type  2   force =     0.00092181   -0.00003158    0.00085210
     atom    7 type  2   force =    -0.00020324    0.00089346    0.00064700
     atom    8 type  2   force =    -0.00019638   -0.00090739    0.00061760
     atom    9 type  2   force =     0.00019457   -0.00088185   -0.00062863
     atom   10 type  2   force =     0.00020244    0.00090032   -0.00062621
     atom   11 type  1   force =     0.00158321    0.00001380   -0.00053973
     atom   12 type  2   force =    -0.00092899   -0.00007081   -0.00084840
     atom   13 type  2   force =    -0.00025351    0.00093599    0.00060081
     atom   14 type  2   force =    -0.00022668   -0.00087517    0.00068066

     Total force =     0.005112     Total SCF correction =     0.000001

     Writing output data file ./Buthane.save/

     init_run     :      1.89s CPU      2.01s WALL (       1 calls)
     electrons    :     34.29s CPU     34.92s WALL (       1 calls)
     forces       :      1.24s CPU      1.29s WALL (       1 calls)

     Called by init_run:
     wfcinit      :      0.84s CPU      0.86s WALL (       1 calls)
     potinit      :      0.62s CPU      0.69s WALL (       1 calls)
     hinit0       :      0.23s CPU      0.26s WALL (       1 calls)

     Called by electrons:
     c_bands      :     20.82s CPU     20.97s WALL (      16 calls)
     sum_band     :      4.38s CPU      4.42s WALL (      16 calls)
     v_of_rho     :      7.23s CPU      7.67s WALL (      17 calls)
     mix_rho      :      2.07s CPU      2.10s WALL (      16 calls)

     Called by c_bands:
     init_us_2    :      0.32s CPU      0.33s WALL (      33 calls)
     regterg      :     20.43s CPU     20.57s WALL (      16 calls)

     Called by *egterg:
     rdiaghg      :      0.04s CPU      0.04s WALL (      50 calls)
     h_psi        :     18.43s CPU     18.57s WALL (      51 calls)
     g_psi        :      0.04s CPU      0.04s WALL (      34 calls)

     Called by h_psi:
     h_psi:calbec :      2.15s CPU      2.16s WALL (      51 calls)
     vloc_psi     :     14.44s CPU     14.56s WALL (      51 calls)
     add_vuspsi   :      1.74s CPU      1.75s WALL (      51 calls)

     General routines
     calbec       :      2.34s CPU      2.34s WALL (      55 calls)
     fft          :      5.02s CPU      5.13s WALL (     144 calls)
     ffts         :      0.56s CPU      0.56s WALL (      16 calls)
     fftw         :     13.80s CPU     13.91s WALL (     776 calls)

     Parallel routines

     PWSCF        :     37.52s CPU     38.34s WALL


   This run was terminated on:   1:16:52  24May2021            

=------------------------------------------------------------------------------=
   JOB DONE.
=------------------------------------------------------------------------------=
