
     Program PWSCF v.6.7GPU starts on 24May2021 at  1:13:27 

     This program is part of the open-source Quantum ESPRESSO suite
     for quantum simulation of materials; please cite
         "P. Giannozzi et al., J. Phys.:Condens. Matter 21 395502 (2009);
         "P. Giannozzi et al., J. Phys.:Condens. Matter 29 465901 (2017);
         "P. Giannozzi et al., J. Chem. Phys. 152 154105 (2020);
          URL http://www.quantum-espresso.org", 
     in publications or presentations arising from this work. More details at
     http://www.quantum-espresso.org/quote

     Parallel version (MPI), running on     4 processors

     MPI processes distributed on     1 nodes
     R & G space division:  proc/nbgrp/npool/nimage =       4
     Waiting for input...
     Reading input from standard input
     Message from routine read_cards :
     DEPRECATED: no units specified in CELL_PARAMETERS card

     Current dimensions of program PWSCF are:
     Max number of different atomic species (ntypx) = 10
     Max number of k-points (npk) =  40000
     Max angular momentum in pseudopotentials (lmaxx) =  3

     gamma-point specific algorithms are used

     Subspace diagonalization in iterative solution of the eigenvalue problem:
     one sub-group per band group will be used
     scalapack distributed-memory algorithm (size of sub-group:  2*  2 procs)


     Parallelization info
     --------------------
     sticks:   dense  smooth     PW     G-vecs:    dense   smooth      PW
     Min        1910    1910    473               125614   125614   15665
     Max        1912    1912    476               125624   125624   15668
     Sum        7645    7645   1901               502479   502479   62669

     Using Slab Decomposition



     bravais-lattice index     =            0
     lattice parameter (alat)  =      20.0000  a.u.
     unit-cell volume          =    8000.0000 (a.u.)^3
     number of atoms/cell      =           14
     number of atomic types    =            2
     number of electrons       =        26.00
     number of Kohn-Sham states=           13
     kinetic-energy cutoff     =      60.0000  Ry
     charge density cutoff     =     240.0000  Ry
     scf convergence threshold =      1.0E-12
     mixing beta               =       0.5000
     number of iterations used =            8  plain     mixing
     Exchange-correlation= PBE
                           (   1   4   3   4   0   0   0)

     celldm(1)=  20.000000  celldm(2)=   0.000000  celldm(3)=   0.000000
     celldm(4)=   0.000000  celldm(5)=   0.000000  celldm(6)=   0.000000

     crystal axes: (cart. coord. in units of alat)
               a(1) = (   1.000000   0.000000   0.000000 )  
               a(2) = (   0.000000   1.000000   0.000000 )  
               a(3) = (   0.000000   0.000000   1.000000 )  

     reciprocal axes: (cart. coord. in units 2 pi/alat)
               b(1) = (  1.000000  0.000000  0.000000 )  
               b(2) = (  0.000000  1.000000  0.000000 )  
               b(3) = (  0.000000  0.000000  1.000000 )  


     PseudoPot. # 1 for C  read from file:
     /home/ciga/builds/pseudo_potentials/C.upf
     MD5 check sum: d80ec9912146af6c4c1760317d1f95e9
     Pseudo is Norm-conserving + core correction, Zval =  4.0
     Generated using ONCVPSP code by D. R. Hamann
     Using radial grid of 1248 points,  4 beta functions with: 
                l(1) =   0
                l(2) =   0
                l(3) =   1
                l(4) =   1

     PseudoPot. # 2 for H  read from file:
     /home/ciga/builds/pseudo_potentials/H.upf
     MD5 check sum: 418cee52d0c413ae40802e6cc37ab9e3
     Pseudo is Norm-conserving, Zval =  1.0
     Generated using ONCVPSP code by D. R. Hamann
     Using radial grid of 1166 points,  3 beta functions with: 
                l(1) =   0
                l(2) =   0
                l(3) =   1

     atomic species   valence    mass     pseudopotential
        C              4.00    12.01070     C ( 1.00)
        H              1.00     1.00794     H ( 1.00)

     No symmetry found



   Cartesian axes

     site n.     atom                  positions (alat units)
         1           C   tau(   1) = (  -0.0538477   0.0001013  -0.0482474  )
         2           C   tau(   2) = (  -0.1849512  -0.0000971   0.0123790  )
         3           C   tau(   3) = (   0.0538490   0.0001009   0.0482523  )
         4           H   tau(   4) = (  -0.1986090  -0.0840791   0.0720042  )
         5           H   tau(   5) = (  -0.1985342   0.0833947   0.0727081  )
         6           H   tau(   6) = (  -0.2602361   0.0002431  -0.0590752  )
         7           H   tau(   7) = (  -0.0438729  -0.0829300  -0.1103678  )
         8           H   tau(   8) = (  -0.0440152   0.0833250  -0.1101304  )
         9           H   tau(   9) = (   0.0440164   0.0833191   0.1101411  )
        10           H   tau(  10) = (   0.0438795  -0.0829346   0.1103664  )
        11           C   tau(  11) = (   0.1849499  -0.0000971  -0.0123831  )
        12           H   tau(  12) = (   0.2602422   0.0006557   0.0590606  )
        13           H   tau(  13) = (   0.1987544  -0.0842815  -0.0716874  )
        14           H   tau(  14) = (   0.1983749   0.0831906  -0.0730295  )

     number of k points=     1
                       cart. coord. in units 2pi/alat
        k(    1) = (   0.0000000   0.0000000   0.0000000), wk =   2.0000000

     Dense  grid:   251240 G-vectors     FFT dimensions: ( 100, 100, 100)

     Estimated max dynamical RAM per process >      63.53 MB

     Estimated total dynamical RAM >     254.12 MB

     Initial potential from superposition of free atoms

     starting charge   25.99973, renormalised to   26.00000

     negative rho (up, down):  3.142E-04 0.000E+00
     Starting wfcs are   26 randomized atomic wfcs

     total cpu time spent up to now is        1.1 secs

     Self-consistent Calculation

     iteration #  1     ecut=    60.00 Ry     beta= 0.50
     Davidson diagonalization with overlap
     ethr =  1.00E-02,  avg # of iterations =  2.0

     negative rho (up, down):  1.301E-04 0.000E+00

     total cpu time spent up to now is        2.2 secs

     total energy              =     -59.75538261 Ry
     estimated scf accuracy    <       1.67097764 Ry

     iteration #  2     ecut=    60.00 Ry     beta= 0.50
     Davidson diagonalization with overlap
     ethr =  6.43E-03,  avg # of iterations =  2.0

     negative rho (up, down):  5.704E-05 0.000E+00

     total cpu time spent up to now is        3.3 secs

     total energy              =     -60.05215429 Ry
     estimated scf accuracy    <       0.12134174 Ry

     iteration #  3     ecut=    60.00 Ry     beta= 0.50
     Davidson diagonalization with overlap
     ethr =  4.67E-04,  avg # of iterations =  1.0

     negative rho (up, down):  2.847E-06 0.000E+00

     total cpu time spent up to now is        4.1 secs

     total energy              =     -60.04361337 Ry
     estimated scf accuracy    <       0.02856636 Ry

     iteration #  4     ecut=    60.00 Ry     beta= 0.50
     Davidson diagonalization with overlap
     ethr =  1.10E-04,  avg # of iterations =  2.0

     negative rho (up, down):  1.585E-06 0.000E+00

     total cpu time spent up to now is        5.1 secs

     total energy              =     -60.04647697 Ry
     estimated scf accuracy    <       0.00432527 Ry

     iteration #  5     ecut=    60.00 Ry     beta= 0.50
     Davidson diagonalization with overlap
     ethr =  1.66E-05,  avg # of iterations =  2.0

     negative rho (up, down):  3.259E-08 0.000E+00

     total cpu time spent up to now is        6.1 secs

     total energy              =     -60.04754106 Ry
     estimated scf accuracy    <       0.00137751 Ry

     iteration #  6     ecut=    60.00 Ry     beta= 0.50
     Davidson diagonalization with overlap
     ethr =  5.30E-06,  avg # of iterations =  2.0

     total cpu time spent up to now is        7.2 secs

     total energy              =     -60.04793097 Ry
     estimated scf accuracy    <       0.00033955 Ry

     iteration #  7     ecut=    60.00 Ry     beta= 0.50
     Davidson diagonalization with overlap
     ethr =  1.31E-06,  avg # of iterations =  2.0

     total cpu time spent up to now is        8.2 secs

     total energy              =     -60.04798346 Ry
     estimated scf accuracy    <       0.00000395 Ry

     iteration #  8     ecut=    60.00 Ry     beta= 0.50
     Davidson diagonalization with overlap
     ethr =  1.52E-08,  avg # of iterations =  4.0

     total cpu time spent up to now is        9.5 secs

     total energy              =     -60.04798804 Ry
     estimated scf accuracy    <       0.00000329 Ry

     iteration #  9     ecut=    60.00 Ry     beta= 0.50
     Davidson diagonalization with overlap
     ethr =  1.27E-08,  avg # of iterations =  1.0

     total cpu time spent up to now is       10.4 secs

     total energy              =     -60.04798738 Ry
     estimated scf accuracy    <       0.00000125 Ry

     iteration # 10     ecut=    60.00 Ry     beta= 0.50
     Davidson diagonalization with overlap
     ethr =  4.79E-09,  avg # of iterations =  2.0

     total cpu time spent up to now is       11.5 secs

     total energy              =     -60.04798786 Ry
     estimated scf accuracy    <       0.00000015 Ry

     iteration # 11     ecut=    60.00 Ry     beta= 0.50
     Davidson diagonalization with overlap
     ethr =  5.64E-10,  avg # of iterations =  1.0

     total cpu time spent up to now is       12.3 secs

     total energy              =     -60.04798784 Ry
     estimated scf accuracy    <       0.00000005 Ry

     iteration # 12     ecut=    60.00 Ry     beta= 0.50
     Davidson diagonalization with overlap
     ethr =  1.90E-10,  avg # of iterations =  2.0

     total cpu time spent up to now is       13.3 secs

     total energy              =     -60.04798785 Ry
     estimated scf accuracy    <          1.6E-09 Ry

     iteration # 13     ecut=    60.00 Ry     beta= 0.50
     Davidson diagonalization with overlap
     ethr =  6.22E-12,  avg # of iterations =  2.0

     total cpu time spent up to now is       14.4 secs

     total energy              =     -60.04798785 Ry
     estimated scf accuracy    <          2.1E-09 Ry

     iteration # 14     ecut=    60.00 Ry     beta= 0.50
     Davidson diagonalization with overlap
     ethr =  6.22E-12,  avg # of iterations =  2.0

     total cpu time spent up to now is       15.4 secs

     total energy              =     -60.04798785 Ry
     estimated scf accuracy    <          2.6E-11 Ry

     iteration # 15     ecut=    60.00 Ry     beta= 0.50
     Davidson diagonalization with overlap
     ethr =  1.00E-13,  avg # of iterations =  4.0

     total cpu time spent up to now is       16.7 secs

     total energy              =     -60.04798785 Ry
     estimated scf accuracy    <          5.2E-11 Ry

     iteration # 16     ecut=    60.00 Ry     beta= 0.50
     Davidson diagonalization with overlap
     ethr =  1.00E-13,  avg # of iterations =  1.0

     total cpu time spent up to now is       17.5 secs

     total energy              =     -60.04798785 Ry
     estimated scf accuracy    <          3.9E-11 Ry

     iteration # 17     ecut=    60.00 Ry     beta= 0.50
     Davidson diagonalization with overlap
     ethr =  1.00E-13,  avg # of iterations =  2.0

     total cpu time spent up to now is       18.5 secs

     End of self-consistent calculation

          k = 0.0000 0.0000 0.0000 ( 31335 PWs)   bands (ev):

   -19.1479 -17.3403 -14.9455 -13.5677 -10.9180  -9.8617  -9.7140  -9.4288
    -8.3625  -7.8566  -7.5469  -7.2148  -7.1245

     highest occupied level (ev):    -7.1245

!    total energy              =     -60.04798785 Ry
     estimated scf accuracy    <          8.4E-13 Ry

     The total energy is the sum of the following terms:
     one-electron contribution =    -203.43776014 Ry
     hartree contribution      =     105.20776000 Ry
     xc contribution           =     -24.32427304 Ry
     ewald contribution        =      62.50628532 Ry

     convergence has been achieved in  17 iterations

     Forces acting on atoms (cartesian axes, Ry/au):

     atom    1 type  1   force =     0.00017971   -0.00002242   -0.00077319
     atom    2 type  1   force =    -0.00062246    0.00000878    0.00014508
     atom    3 type  1   force =    -0.00016793    0.00001013    0.00075705
     atom    4 type  2   force =     0.00011142    0.00023349   -0.00013685
     atom    5 type  2   force =     0.00010849   -0.00021286   -0.00016356
     atom    6 type  2   force =     0.00028791   -0.00002888    0.00030366
     atom    7 type  2   force =    -0.00010808    0.00018044    0.00007988
     atom    8 type  2   force =    -0.00010243   -0.00019259    0.00005283
     atom    9 type  2   force =     0.00010062   -0.00016707   -0.00006383
     atom   10 type  2   force =     0.00010730    0.00018733   -0.00005915
     atom   11 type  1   force =     0.00061763    0.00001494   -0.00013057
     atom   12 type  2   force =    -0.00029501   -0.00006479   -0.00030004
     atom   13 type  2   force =    -0.00012106    0.00025414    0.00011004
     atom   14 type  2   force =    -0.00009610   -0.00020065    0.00017866

     Total force =     0.001712     Total SCF correction =     0.000001

     Writing output data file ./Buthane.save/

     init_run     :      0.95s CPU      1.03s WALL (       1 calls)
     electrons    :     17.09s CPU     17.44s WALL (       1 calls)
     forces       :      0.66s CPU      0.67s WALL (       1 calls)

     Called by init_run:
     wfcinit      :      0.40s CPU      0.41s WALL (       1 calls)
     potinit      :      0.34s CPU      0.39s WALL (       1 calls)
     hinit0       :      0.13s CPU      0.15s WALL (       1 calls)

     Called by electrons:
     c_bands      :      9.90s CPU      9.98s WALL (      17 calls)
     sum_band     :      2.25s CPU      2.26s WALL (      17 calls)
     v_of_rho     :      3.82s CPU      4.10s WALL (      18 calls)
     mix_rho      :      1.17s CPU      1.19s WALL (      17 calls)

     Called by c_bands:
     init_us_2    :      0.18s CPU      0.19s WALL (      35 calls)
     regterg      :      9.68s CPU      9.75s WALL (      17 calls)

     Called by *egterg:
     rdiaghg      :      0.04s CPU      0.04s WALL (      51 calls)
     h_psi        :      8.67s CPU      8.75s WALL (      52 calls)
     g_psi        :      0.02s CPU      0.02s WALL (      34 calls)

     Called by h_psi:
     h_psi:calbec :      1.18s CPU      1.18s WALL (      52 calls)
     vloc_psi     :      6.47s CPU      6.54s WALL (      52 calls)
     add_vuspsi   :      0.97s CPU      0.97s WALL (      52 calls)

     General routines
     calbec       :      1.27s CPU      1.27s WALL (      56 calls)
     fft          :      2.64s CPU      2.71s WALL (     152 calls)
     ffts         :      0.28s CPU      0.28s WALL (      17 calls)
     fftw         :      6.05s CPU      6.11s WALL (     813 calls)

     Parallel routines

     PWSCF        :     18.77s CPU     19.24s WALL


   This run was terminated on:   1:13:47  24May2021            

=------------------------------------------------------------------------------=
   JOB DONE.
=------------------------------------------------------------------------------=
