
     Program PWSCF v.6.7GPU starts on 24May2021 at  1:15:39 

     This program is part of the open-source Quantum ESPRESSO suite
     for quantum simulation of materials; please cite
         "P. Giannozzi et al., J. Phys.:Condens. Matter 21 395502 (2009);
         "P. Giannozzi et al., J. Phys.:Condens. Matter 29 465901 (2017);
         "P. Giannozzi et al., J. Chem. Phys. 152 154105 (2020);
          URL http://www.quantum-espresso.org", 
     in publications or presentations arising from this work. More details at
     http://www.quantum-espresso.org/quote

     Parallel version (MPI), running on     4 processors

     MPI processes distributed on     1 nodes
     R & G space division:  proc/nbgrp/npool/nimage =       4
     Waiting for input...
     Reading input from standard input
     Message from routine read_cards :
     DEPRECATED: no units specified in CELL_PARAMETERS card

     Current dimensions of program PWSCF are:
     Max number of different atomic species (ntypx) = 10
     Max number of k-points (npk) =  40000
     Max angular momentum in pseudopotentials (lmaxx) =  3

     gamma-point specific algorithms are used

     Subspace diagonalization in iterative solution of the eigenvalue problem:
     one sub-group per band group will be used
     scalapack distributed-memory algorithm (size of sub-group:  2*  2 procs)


     Parallelization info
     --------------------
     sticks:   dense  smooth     PW     G-vecs:    dense   smooth      PW
     Min        2700    2700    675               211636   211636   26505
     Max        2704    2704    678               211641   211641   26514
     Sum       10805   10805   2709               846553   846553  106047

     Using Slab Decomposition



     bravais-lattice index     =            0
     lattice parameter (alat)  =      20.0000  a.u.
     unit-cell volume          =    8000.0000 (a.u.)^3
     number of atoms/cell      =           14
     number of atomic types    =            2
     number of electrons       =        26.00
     number of Kohn-Sham states=           13
     kinetic-energy cutoff     =      85.0000  Ry
     charge density cutoff     =     340.0000  Ry
     scf convergence threshold =      1.0E-12
     mixing beta               =       0.5000
     number of iterations used =            8  plain     mixing
     Exchange-correlation= PBE
                           (   1   4   3   4   0   0   0)

     celldm(1)=  20.000000  celldm(2)=   0.000000  celldm(3)=   0.000000
     celldm(4)=   0.000000  celldm(5)=   0.000000  celldm(6)=   0.000000

     crystal axes: (cart. coord. in units of alat)
               a(1) = (   1.000000   0.000000   0.000000 )  
               a(2) = (   0.000000   1.000000   0.000000 )  
               a(3) = (   0.000000   0.000000   1.000000 )  

     reciprocal axes: (cart. coord. in units 2 pi/alat)
               b(1) = (  1.000000  0.000000  0.000000 )  
               b(2) = (  0.000000  1.000000  0.000000 )  
               b(3) = (  0.000000  0.000000  1.000000 )  


     PseudoPot. # 1 for C  read from file:
     /home/ciga/builds/pseudo_potentials/C.upf
     MD5 check sum: d80ec9912146af6c4c1760317d1f95e9
     Pseudo is Norm-conserving + core correction, Zval =  4.0
     Generated using ONCVPSP code by D. R. Hamann
     Using radial grid of 1248 points,  4 beta functions with: 
                l(1) =   0
                l(2) =   0
                l(3) =   1
                l(4) =   1

     PseudoPot. # 2 for H  read from file:
     /home/ciga/builds/pseudo_potentials/H.upf
     MD5 check sum: 418cee52d0c413ae40802e6cc37ab9e3
     Pseudo is Norm-conserving, Zval =  1.0
     Generated using ONCVPSP code by D. R. Hamann
     Using radial grid of 1166 points,  3 beta functions with: 
                l(1) =   0
                l(2) =   0
                l(3) =   1

     atomic species   valence    mass     pseudopotential
        C              4.00    12.01070     C ( 1.00)
        H              1.00     1.00794     H ( 1.00)

     No symmetry found



   Cartesian axes

     site n.     atom                  positions (alat units)
         1           C   tau(   1) = (  -0.0538477   0.0001013  -0.0482474  )
         2           C   tau(   2) = (  -0.1849512  -0.0000971   0.0123790  )
         3           C   tau(   3) = (   0.0538490   0.0001009   0.0482523  )
         4           H   tau(   4) = (  -0.1986090  -0.0840791   0.0720042  )
         5           H   tau(   5) = (  -0.1985342   0.0833947   0.0727081  )
         6           H   tau(   6) = (  -0.2602361   0.0002431  -0.0590752  )
         7           H   tau(   7) = (  -0.0438729  -0.0829300  -0.1103678  )
         8           H   tau(   8) = (  -0.0440152   0.0833250  -0.1101304  )
         9           H   tau(   9) = (   0.0440164   0.0833191   0.1101411  )
        10           H   tau(  10) = (   0.0438795  -0.0829346   0.1103664  )
        11           C   tau(  11) = (   0.1849499  -0.0000971  -0.0123831  )
        12           H   tau(  12) = (   0.2602422   0.0006557   0.0590606  )
        13           H   tau(  13) = (   0.1987544  -0.0842815  -0.0716874  )
        14           H   tau(  14) = (   0.1983749   0.0831906  -0.0730295  )

     number of k points=     1
                       cart. coord. in units 2pi/alat
        k(    1) = (   0.0000000   0.0000000   0.0000000), wk =   2.0000000

     Dense  grid:   423277 G-vectors     FFT dimensions: ( 120, 120, 120)

     Estimated max dynamical RAM per process >     107.44 MB

     Estimated total dynamical RAM >     429.75 MB

     Initial potential from superposition of free atoms

     starting charge   25.99973, renormalised to   26.00000

     negative rho (up, down):  2.511E-05 0.000E+00
     Starting wfcs are   26 randomized atomic wfcs

     total cpu time spent up to now is        1.8 secs

     Self-consistent Calculation

     iteration #  1     ecut=    85.00 Ry     beta= 0.50
     Davidson diagonalization with overlap
     ethr =  1.00E-02,  avg # of iterations =  2.0

     negative rho (up, down):  4.068E-06 0.000E+00

     total cpu time spent up to now is        3.7 secs

     total energy              =     -59.76800712 Ry
     estimated scf accuracy    <       1.68222144 Ry

     iteration #  2     ecut=    85.00 Ry     beta= 0.50
     Davidson diagonalization with overlap
     ethr =  6.47E-03,  avg # of iterations =  2.0

     negative rho (up, down):  9.645E-07 0.000E+00

     total cpu time spent up to now is        5.6 secs

     total energy              =     -60.06822324 Ry
     estimated scf accuracy    <       0.12178206 Ry

     iteration #  3     ecut=    85.00 Ry     beta= 0.50
     Davidson diagonalization with overlap
     ethr =  4.68E-04,  avg # of iterations =  1.0

     negative rho (up, down):  3.914E-08 0.000E+00

     total cpu time spent up to now is        7.1 secs

     total energy              =     -60.05971764 Ry
     estimated scf accuracy    <       0.02873317 Ry

     iteration #  4     ecut=    85.00 Ry     beta= 0.50
     Davidson diagonalization with overlap
     ethr =  1.11E-04,  avg # of iterations =  2.0

     negative rho (up, down):  1.107E-08 0.000E+00

     total cpu time spent up to now is        8.9 secs

     total energy              =     -60.06259378 Ry
     estimated scf accuracy    <       0.00434890 Ry

     iteration #  5     ecut=    85.00 Ry     beta= 0.50
     Davidson diagonalization with overlap
     ethr =  1.67E-05,  avg # of iterations =  2.0

     total cpu time spent up to now is       10.8 secs

     total energy              =     -60.06366424 Ry
     estimated scf accuracy    <       0.00138859 Ry

     iteration #  6     ecut=    85.00 Ry     beta= 0.50
     Davidson diagonalization with overlap
     ethr =  5.34E-06,  avg # of iterations =  2.0

     total cpu time spent up to now is       12.7 secs

     total energy              =     -60.06405863 Ry
     estimated scf accuracy    <       0.00034510 Ry

     iteration #  7     ecut=    85.00 Ry     beta= 0.50
     Davidson diagonalization with overlap
     ethr =  1.33E-06,  avg # of iterations =  2.0

     total cpu time spent up to now is       14.6 secs

     total energy              =     -60.06411116 Ry
     estimated scf accuracy    <       0.00000441 Ry

     iteration #  8     ecut=    85.00 Ry     beta= 0.50
     Davidson diagonalization with overlap
     ethr =  1.70E-08,  avg # of iterations =  4.0

     total cpu time spent up to now is       17.0 secs

     total energy              =     -60.06411595 Ry
     estimated scf accuracy    <       0.00000341 Ry

     iteration #  9     ecut=    85.00 Ry     beta= 0.50
     Davidson diagonalization with overlap
     ethr =  1.31E-08,  avg # of iterations =  1.0

     total cpu time spent up to now is       18.5 secs

     total energy              =     -60.06411533 Ry
     estimated scf accuracy    <       0.00000125 Ry

     iteration # 10     ecut=    85.00 Ry     beta= 0.50
     Davidson diagonalization with overlap
     ethr =  4.82E-09,  avg # of iterations =  2.0

     total cpu time spent up to now is       20.5 secs

     total energy              =     -60.06411578 Ry
     estimated scf accuracy    <       0.00000010 Ry

     iteration # 11     ecut=    85.00 Ry     beta= 0.50
     Davidson diagonalization with overlap
     ethr =  3.81E-10,  avg # of iterations =  1.0

     total cpu time spent up to now is       22.0 secs

     total energy              =     -60.06411576 Ry
     estimated scf accuracy    <       0.00000004 Ry

     iteration # 12     ecut=    85.00 Ry     beta= 0.50
     Davidson diagonalization with overlap
     ethr =  1.64E-10,  avg # of iterations =  2.0

     total cpu time spent up to now is       23.9 secs

     total energy              =     -60.06411577 Ry
     estimated scf accuracy    <          8.5E-10 Ry

     iteration # 13     ecut=    85.00 Ry     beta= 0.50
     Davidson diagonalization with overlap
     ethr =  3.25E-12,  avg # of iterations =  3.0

     total cpu time spent up to now is       25.9 secs

     total energy              =     -60.06411577 Ry
     estimated scf accuracy    <          3.4E-09 Ry

     iteration # 14     ecut=    85.00 Ry     beta= 0.50
     Davidson diagonalization with overlap
     ethr =  3.25E-12,  avg # of iterations =  3.0

     total cpu time spent up to now is       28.0 secs

     total energy              =     -60.06411577 Ry
     estimated scf accuracy    <          1.2E-11 Ry

     iteration # 15     ecut=    85.00 Ry     beta= 0.50
     Davidson diagonalization with overlap
     ethr =  1.00E-13,  avg # of iterations =  4.0

     total cpu time spent up to now is       30.3 secs

     total energy              =     -60.06411577 Ry
     estimated scf accuracy    <          3.4E-11 Ry

     iteration # 16     ecut=    85.00 Ry     beta= 0.50
     Davidson diagonalization with overlap
     ethr =  1.00E-13,  avg # of iterations =  2.0

     total cpu time spent up to now is       32.1 secs

     total energy              =     -60.06411577 Ry
     estimated scf accuracy    <          1.4E-12 Ry

     iteration # 17     ecut=    85.00 Ry     beta= 0.50
     Davidson diagonalization with overlap
     ethr =  1.00E-13,  avg # of iterations =  1.0

     total cpu time spent up to now is       33.5 secs

     End of self-consistent calculation

          k = 0.0000 0.0000 0.0000 ( 53024 PWs)   bands (ev):

   -19.1376 -17.3311 -14.9378 -13.5618 -10.9166  -9.8609  -9.7128  -9.4283
    -8.3627  -7.8567  -7.5475  -7.2157  -7.1249

     highest occupied level (ev):    -7.1249

!    total energy              =     -60.06411577 Ry
     estimated scf accuracy    <          8.0E-13 Ry

     The total energy is the sum of the following terms:
     one-electron contribution =    -203.46573436 Ry
     hartree contribution      =     105.22650387 Ry
     xc contribution           =     -24.33117061 Ry
     ewald contribution        =      62.50628533 Ry

     convergence has been achieved in  17 iterations

     Forces acting on atoms (cartesian axes, Ry/au):

     atom    1 type  1   force =     0.00025169   -0.00002076   -0.00188839
     atom    2 type  1   force =    -0.00158378    0.00000751    0.00055268
     atom    3 type  1   force =    -0.00023966    0.00001166    0.00187212
     atom    4 type  2   force =     0.00024251    0.00091097   -0.00062803
     atom    5 type  2   force =     0.00023967   -0.00088618   -0.00066069
     atom    6 type  2   force =     0.00091879   -0.00003157    0.00084956
     atom    7 type  2   force =    -0.00020296    0.00089073    0.00064458
     atom    8 type  2   force =    -0.00019611   -0.00090466    0.00061520
     atom    9 type  2   force =     0.00019429   -0.00087911   -0.00062622
     atom   10 type  2   force =     0.00020216    0.00089759   -0.00062379
     atom   11 type  1   force =     0.00157872    0.00001382   -0.00053817
     atom   12 type  2   force =    -0.00092595   -0.00007079   -0.00084585
     atom   13 type  2   force =    -0.00025309    0.00093317    0.00059860
     atom   14 type  2   force =    -0.00022627   -0.00087238    0.00067839

     Total force =     0.005098     Total SCF correction =     0.000001

     Writing output data file ./Buthane.save/

     init_run     :      1.64s CPU      1.73s WALL (       1 calls)
     electrons    :     31.17s CPU     31.72s WALL (       1 calls)
     forces       :      1.09s CPU      1.13s WALL (       1 calls)

     Called by init_run:
     wfcinit      :      0.70s CPU      0.72s WALL (       1 calls)
     potinit      :      0.56s CPU      0.61s WALL (       1 calls)
     hinit0       :      0.22s CPU      0.24s WALL (       1 calls)

     Called by electrons:
     c_bands      :     18.51s CPU     18.61s WALL (      17 calls)
     sum_band     :      4.04s CPU      4.07s WALL (      17 calls)
     v_of_rho     :      6.75s CPU      7.16s WALL (      18 calls)
     mix_rho      :      2.04s CPU      2.07s WALL (      17 calls)

     Called by c_bands:
     init_us_2    :      0.30s CPU      0.32s WALL (      35 calls)
     regterg      :     18.13s CPU     18.23s WALL (      17 calls)

     Called by *egterg:
     rdiaghg      :      0.04s CPU      0.04s WALL (      53 calls)
     h_psi        :     16.16s CPU     16.25s WALL (      54 calls)
     g_psi        :      0.04s CPU      0.04s WALL (      36 calls)

     Called by h_psi:
     h_psi:calbec :      2.04s CPU      2.04s WALL (      54 calls)
     vloc_psi     :     12.35s CPU     12.43s WALL (      54 calls)
     add_vuspsi   :      1.68s CPU      1.68s WALL (      54 calls)

     General routines
     calbec       :      2.20s CPU      2.20s WALL (      58 calls)
     fft          :      4.77s CPU      4.85s WALL (     152 calls)
     ffts         :      0.50s CPU      0.51s WALL (      17 calls)
     fftw         :     11.72s CPU     11.79s WALL (     823 calls)

     Parallel routines

     PWSCF        :     34.00s CPU     34.69s WALL


   This run was terminated on:   1:16:14  24May2021            

=------------------------------------------------------------------------------=
   JOB DONE.
=------------------------------------------------------------------------------=
