
     Program PWSCF v.6.7GPU starts on 24May2021 at  1:14:38 

     This program is part of the open-source Quantum ESPRESSO suite
     for quantum simulation of materials; please cite
         "P. Giannozzi et al., J. Phys.:Condens. Matter 21 395502 (2009);
         "P. Giannozzi et al., J. Phys.:Condens. Matter 29 465901 (2017);
         "P. Giannozzi et al., J. Chem. Phys. 152 154105 (2020);
          URL http://www.quantum-espresso.org", 
     in publications or presentations arising from this work. More details at
     http://www.quantum-espresso.org/quote

     Parallel version (MPI), running on     4 processors

     MPI processes distributed on     1 nodes
     R & G space division:  proc/nbgrp/npool/nimage =       4
     Waiting for input...
     Reading input from standard input
     Message from routine read_cards :
     DEPRECATED: no units specified in CELL_PARAMETERS card

     Current dimensions of program PWSCF are:
     Max number of different atomic species (ntypx) = 10
     Max number of k-points (npk) =  40000
     Max angular momentum in pseudopotentials (lmaxx) =  3

     gamma-point specific algorithms are used

     Subspace diagonalization in iterative solution of the eigenvalue problem:
     one sub-group per band group will be used
     scalapack distributed-memory algorithm (size of sub-group:  2*  2 procs)


     Parallelization info
     --------------------
     sticks:   dense  smooth     PW     G-vecs:    dense   smooth      PW
     Min        2386    2386    595               175366   175366   21912
     Max        2388    2388    598               175372   175372   21918
     Sum        9549    9549   2385               701475   701475   87655

     Using Slab Decomposition



     bravais-lattice index     =            0
     lattice parameter (alat)  =      20.0000  a.u.
     unit-cell volume          =    8000.0000 (a.u.)^3
     number of atoms/cell      =           14
     number of atomic types    =            2
     number of electrons       =        26.00
     number of Kohn-Sham states=           13
     kinetic-energy cutoff     =      75.0000  Ry
     charge density cutoff     =     300.0000  Ry
     scf convergence threshold =      1.0E-12
     mixing beta               =       0.5000
     number of iterations used =            8  plain     mixing
     Exchange-correlation= PBE
                           (   1   4   3   4   0   0   0)

     celldm(1)=  20.000000  celldm(2)=   0.000000  celldm(3)=   0.000000
     celldm(4)=   0.000000  celldm(5)=   0.000000  celldm(6)=   0.000000

     crystal axes: (cart. coord. in units of alat)
               a(1) = (   1.000000   0.000000   0.000000 )  
               a(2) = (   0.000000   1.000000   0.000000 )  
               a(3) = (   0.000000   0.000000   1.000000 )  

     reciprocal axes: (cart. coord. in units 2 pi/alat)
               b(1) = (  1.000000  0.000000  0.000000 )  
               b(2) = (  0.000000  1.000000  0.000000 )  
               b(3) = (  0.000000  0.000000  1.000000 )  


     PseudoPot. # 1 for C  read from file:
     /home/ciga/builds/pseudo_potentials/C.upf
     MD5 check sum: d80ec9912146af6c4c1760317d1f95e9
     Pseudo is Norm-conserving + core correction, Zval =  4.0
     Generated using ONCVPSP code by D. R. Hamann
     Using radial grid of 1248 points,  4 beta functions with: 
                l(1) =   0
                l(2) =   0
                l(3) =   1
                l(4) =   1

     PseudoPot. # 2 for H  read from file:
     /home/ciga/builds/pseudo_potentials/H.upf
     MD5 check sum: 418cee52d0c413ae40802e6cc37ab9e3
     Pseudo is Norm-conserving, Zval =  1.0
     Generated using ONCVPSP code by D. R. Hamann
     Using radial grid of 1166 points,  3 beta functions with: 
                l(1) =   0
                l(2) =   0
                l(3) =   1

     atomic species   valence    mass     pseudopotential
        C              4.00    12.01070     C ( 1.00)
        H              1.00     1.00794     H ( 1.00)

     No symmetry found



   Cartesian axes

     site n.     atom                  positions (alat units)
         1           C   tau(   1) = (  -0.0538477   0.0001013  -0.0482474  )
         2           C   tau(   2) = (  -0.1849512  -0.0000971   0.0123790  )
         3           C   tau(   3) = (   0.0538490   0.0001009   0.0482523  )
         4           H   tau(   4) = (  -0.1986090  -0.0840791   0.0720042  )
         5           H   tau(   5) = (  -0.1985342   0.0833947   0.0727081  )
         6           H   tau(   6) = (  -0.2602361   0.0002431  -0.0590752  )
         7           H   tau(   7) = (  -0.0438729  -0.0829300  -0.1103678  )
         8           H   tau(   8) = (  -0.0440152   0.0833250  -0.1101304  )
         9           H   tau(   9) = (   0.0440164   0.0833191   0.1101411  )
        10           H   tau(  10) = (   0.0438795  -0.0829346   0.1103664  )
        11           C   tau(  11) = (   0.1849499  -0.0000971  -0.0123831  )
        12           H   tau(  12) = (   0.2602422   0.0006557   0.0590606  )
        13           H   tau(  13) = (   0.1987544  -0.0842815  -0.0716874  )
        14           H   tau(  14) = (   0.1983749   0.0831906  -0.0730295  )

     number of k points=     1
                       cart. coord. in units 2pi/alat
        k(    1) = (   0.0000000   0.0000000   0.0000000), wk =   2.0000000

     Dense  grid:   350738 G-vectors     FFT dimensions: ( 120, 120, 120)

     Estimated max dynamical RAM per process >      94.21 MB

     Estimated total dynamical RAM >     376.84 MB

     Initial potential from superposition of free atoms

     starting charge   25.99973, renormalised to   26.00000

     negative rho (up, down):  8.417E-05 0.000E+00
     Starting wfcs are   26 randomized atomic wfcs

     total cpu time spent up to now is        1.6 secs

     Self-consistent Calculation

     iteration #  1     ecut=    75.00 Ry     beta= 0.50
     Davidson diagonalization with overlap
     ethr =  1.00E-02,  avg # of iterations =  2.0

     negative rho (up, down):  2.616E-05 0.000E+00

     total cpu time spent up to now is        3.4 secs

     total energy              =     -59.76721316 Ry
     estimated scf accuracy    <       1.68174436 Ry

     iteration #  2     ecut=    75.00 Ry     beta= 0.50
     Davidson diagonalization with overlap
     ethr =  6.47E-03,  avg # of iterations =  2.0

     negative rho (up, down):  9.443E-06 0.000E+00

     total cpu time spent up to now is        5.1 secs

     total energy              =     -60.06735453 Ry
     estimated scf accuracy    <       0.12178098 Ry

     iteration #  3     ecut=    75.00 Ry     beta= 0.50
     Davidson diagonalization with overlap
     ethr =  4.68E-04,  avg # of iterations =  1.0

     negative rho (up, down):  4.984E-07 0.000E+00

     total cpu time spent up to now is        6.5 secs

     total energy              =     -60.05879880 Ry
     estimated scf accuracy    <       0.02875179 Ry

     iteration #  4     ecut=    75.00 Ry     beta= 0.50
     Davidson diagonalization with overlap
     ethr =  1.11E-04,  avg # of iterations =  2.0

     negative rho (up, down):  2.188E-07 0.000E+00

     total cpu time spent up to now is        8.2 secs

     total energy              =     -60.06165884 Ry
     estimated scf accuracy    <       0.00438855 Ry

     iteration #  5     ecut=    75.00 Ry     beta= 0.50
     Davidson diagonalization with overlap
     ethr =  1.69E-05,  avg # of iterations =  2.0

     negative rho (up, down):  1.272E-08 0.000E+00

     total cpu time spent up to now is        9.9 secs

     total energy              =     -60.06273213 Ry
     estimated scf accuracy    <       0.00144319 Ry

     iteration #  6     ecut=    75.00 Ry     beta= 0.50
     Davidson diagonalization with overlap
     ethr =  5.55E-06,  avg # of iterations =  2.0

     total cpu time spent up to now is       11.7 secs

     total energy              =     -60.06314263 Ry
     estimated scf accuracy    <       0.00034878 Ry

     iteration #  7     ecut=    75.00 Ry     beta= 0.50
     Davidson diagonalization with overlap
     ethr =  1.34E-06,  avg # of iterations =  2.0

     total cpu time spent up to now is       13.4 secs

     total energy              =     -60.06319484 Ry
     estimated scf accuracy    <       0.00000488 Ry

     iteration #  8     ecut=    75.00 Ry     beta= 0.50
     Davidson diagonalization with overlap
     ethr =  1.88E-08,  avg # of iterations =  4.0

     total cpu time spent up to now is       15.6 secs

     total energy              =     -60.06319985 Ry
     estimated scf accuracy    <       0.00000307 Ry

     iteration #  9     ecut=    75.00 Ry     beta= 0.50
     Davidson diagonalization with overlap
     ethr =  1.18E-08,  avg # of iterations =  1.0

     total cpu time spent up to now is       17.0 secs

     total energy              =     -60.06319920 Ry
     estimated scf accuracy    <       0.00000131 Ry

     iteration # 10     ecut=    75.00 Ry     beta= 0.50
     Davidson diagonalization with overlap
     ethr =  5.03E-09,  avg # of iterations =  2.0

     total cpu time spent up to now is       18.8 secs

     total energy              =     -60.06319962 Ry
     estimated scf accuracy    <       0.00000006 Ry

     iteration # 11     ecut=    75.00 Ry     beta= 0.50
     Davidson diagonalization with overlap
     ethr =  2.13E-10,  avg # of iterations =  2.0

     total cpu time spent up to now is       20.4 secs

     total energy              =     -60.06319962 Ry
     estimated scf accuracy    <       0.00000001 Ry

     iteration # 12     ecut=    75.00 Ry     beta= 0.50
     Davidson diagonalization with overlap
     ethr =  4.15E-11,  avg # of iterations =  2.0

     total cpu time spent up to now is       22.1 secs

     total energy              =     -60.06319962 Ry
     estimated scf accuracy    <          8.2E-11 Ry

     iteration # 13     ecut=    75.00 Ry     beta= 0.50
     Davidson diagonalization with overlap
     ethr =  3.17E-13,  avg # of iterations =  5.0

     total cpu time spent up to now is       24.3 secs

     total energy              =     -60.06319962 Ry
     estimated scf accuracy    <          1.5E-11 Ry

     iteration # 14     ecut=    75.00 Ry     beta= 0.50
     Davidson diagonalization with overlap
     ethr =  1.00E-13,  avg # of iterations =  2.0

     total cpu time spent up to now is       26.1 secs

     total energy              =     -60.06319962 Ry
     estimated scf accuracy    <          1.9E-11 Ry

     iteration # 15     ecut=    75.00 Ry     beta= 0.50
     Davidson diagonalization with overlap
     ethr =  1.00E-13,  avg # of iterations =  2.0

     total cpu time spent up to now is       27.6 secs

     End of self-consistent calculation

          k = 0.0000 0.0000 0.0000 ( 43828 PWs)   bands (ev):

   -19.1382 -17.3316 -14.9382 -13.5621 -10.9167  -9.8610  -9.7130  -9.4284
    -8.3628  -7.8567  -7.5476  -7.2158  -7.1250

     highest occupied level (ev):    -7.1250

!    total energy              =     -60.06319962 Ry
     estimated scf accuracy    <          2.8E-13 Ry

     The total energy is the sum of the following terms:
     one-electron contribution =    -203.46415809 Ry
     hartree contribution      =     105.22539434 Ry
     xc contribution           =     -24.33072120 Ry
     ewald contribution        =      62.50628533 Ry

     convergence has been achieved in  15 iterations

     Forces acting on atoms (cartesian axes, Ry/au):

     atom    1 type  1   force =     0.00026586   -0.00002069   -0.00195327
     atom    2 type  1   force =    -0.00163113    0.00000725    0.00057831
     atom    3 type  1   force =    -0.00025385    0.00001183    0.00193701
     atom    4 type  2   force =     0.00023810    0.00086906   -0.00060061
     atom    5 type  2   force =     0.00023517   -0.00084439   -0.00063293
     atom    6 type  2   force =     0.00088285   -0.00003135    0.00081208
     atom    7 type  2   force =    -0.00019990    0.00085202    0.00062099
     atom    8 type  2   force =    -0.00019310   -0.00086591    0.00059175
     atom    9 type  2   force =     0.00019127   -0.00084034   -0.00060275
     atom   10 type  2   force =     0.00019911    0.00085888   -0.00060020
     atom   11 type  1   force =     0.00162609    0.00001335   -0.00056379
     atom   12 type  2   force =    -0.00089002   -0.00007031   -0.00080839
     atom   13 type  2   force =    -0.00024868    0.00089122    0.00057133
     atom   14 type  2   force =    -0.00022177   -0.00083062    0.00065047

     Total force =     0.005076     Total SCF correction =     0.000001

     Writing output data file ./Buthane.save/

     init_run     :      1.46s CPU      1.56s WALL (       1 calls)
     electrons    :     25.37s CPU     26.00s WALL (       1 calls)
     forces       :      0.95s CPU      1.00s WALL (       1 calls)

     Called by init_run:
     wfcinit      :      0.65s CPU      0.65s WALL (       1 calls)
     potinit      :      0.51s CPU      0.56s WALL (       1 calls)
     hinit0       :      0.17s CPU      0.20s WALL (       1 calls)

     Called by electrons:
     c_bands      :     15.09s CPU     15.17s WALL (      15 calls)
     sum_band     :      3.37s CPU      3.40s WALL (      15 calls)
     v_of_rho     :      5.59s CPU      6.13s WALL (      16 calls)
     mix_rho      :      1.50s CPU      1.52s WALL (      15 calls)

     Called by c_bands:
     init_us_2    :      0.23s CPU      0.23s WALL (      31 calls)
     regterg      :     14.81s CPU     14.89s WALL (      15 calls)

     Called by *egterg:
     rdiaghg      :      0.03s CPU      0.03s WALL (      48 calls)
     h_psi        :     13.51s CPU     13.59s WALL (      49 calls)
     g_psi        :      0.03s CPU      0.03s WALL (      33 calls)

     Called by h_psi:
     h_psi:calbec :      1.51s CPU      1.52s WALL (      49 calls)
     vloc_psi     :     10.68s CPU     10.75s WALL (      49 calls)
     add_vuspsi   :      1.24s CPU      1.24s WALL (      49 calls)

     General routines
     calbec       :      1.65s CPU      1.65s WALL (      53 calls)
     fft          :      3.85s CPU      3.98s WALL (     136 calls)
     ffts         :      0.41s CPU      0.41s WALL (      15 calls)
     fftw         :      9.99s CPU     10.05s WALL (     739 calls)

     Parallel routines

     PWSCF        :     27.89s CPU     28.68s WALL


   This run was terminated on:   1:15: 6  24May2021            

=------------------------------------------------------------------------------=
   JOB DONE.
=------------------------------------------------------------------------------=
