
     Program PWSCF v.6.7GPU starts on 24May2021 at  1:12:37 

     This program is part of the open-source Quantum ESPRESSO suite
     for quantum simulation of materials; please cite
         "P. Giannozzi et al., J. Phys.:Condens. Matter 21 395502 (2009);
         "P. Giannozzi et al., J. Phys.:Condens. Matter 29 465901 (2017);
         "P. Giannozzi et al., J. Chem. Phys. 152 154105 (2020);
          URL http://www.quantum-espresso.org", 
     in publications or presentations arising from this work. More details at
     http://www.quantum-espresso.org/quote

     Parallel version (MPI), running on     4 processors

     MPI processes distributed on     1 nodes
     R & G space division:  proc/nbgrp/npool/nimage =       4
     Waiting for input...
     Reading input from standard input
     Message from routine read_cards :
     DEPRECATED: no units specified in CELL_PARAMETERS card

     Current dimensions of program PWSCF are:
     Max number of different atomic species (ntypx) = 10
     Max number of k-points (npk) =  40000
     Max angular momentum in pseudopotentials (lmaxx) =  3

     gamma-point specific algorithms are used

     Subspace diagonalization in iterative solution of the eigenvalue problem:
     one sub-group per band group will be used
     scalapack distributed-memory algorithm (size of sub-group:  2*  2 procs)


     Parallelization info
     --------------------
     sticks:   dense  smooth     PW     G-vecs:    dense   smooth      PW
     Min        1429    1429    358                81505    81505   10162
     Max        1432    1432    359                81512    81512   10165
     Sum        5721    5721   1433               326029   326029   40651

     Using Slab Decomposition



     bravais-lattice index     =            0
     lattice parameter (alat)  =      20.0000  a.u.
     unit-cell volume          =    8000.0000 (a.u.)^3
     number of atoms/cell      =           14
     number of atomic types    =            2
     number of electrons       =        26.00
     number of Kohn-Sham states=           13
     kinetic-energy cutoff     =      45.0000  Ry
     charge density cutoff     =     180.0000  Ry
     scf convergence threshold =      1.0E-12
     mixing beta               =       0.5000
     number of iterations used =            8  plain     mixing
     Exchange-correlation= PBE
                           (   1   4   3   4   0   0   0)

     celldm(1)=  20.000000  celldm(2)=   0.000000  celldm(3)=   0.000000
     celldm(4)=   0.000000  celldm(5)=   0.000000  celldm(6)=   0.000000

     crystal axes: (cart. coord. in units of alat)
               a(1) = (   1.000000   0.000000   0.000000 )  
               a(2) = (   0.000000   1.000000   0.000000 )  
               a(3) = (   0.000000   0.000000   1.000000 )  

     reciprocal axes: (cart. coord. in units 2 pi/alat)
               b(1) = (  1.000000  0.000000  0.000000 )  
               b(2) = (  0.000000  1.000000  0.000000 )  
               b(3) = (  0.000000  0.000000  1.000000 )  


     PseudoPot. # 1 for C  read from file:
     /home/ciga/builds/pseudo_potentials/C.upf
     MD5 check sum: d80ec9912146af6c4c1760317d1f95e9
     Pseudo is Norm-conserving + core correction, Zval =  4.0
     Generated using ONCVPSP code by D. R. Hamann
     Using radial grid of 1248 points,  4 beta functions with: 
                l(1) =   0
                l(2) =   0
                l(3) =   1
                l(4) =   1

     PseudoPot. # 2 for H  read from file:
     /home/ciga/builds/pseudo_potentials/H.upf
     MD5 check sum: 418cee52d0c413ae40802e6cc37ab9e3
     Pseudo is Norm-conserving, Zval =  1.0
     Generated using ONCVPSP code by D. R. Hamann
     Using radial grid of 1166 points,  3 beta functions with: 
                l(1) =   0
                l(2) =   0
                l(3) =   1

     atomic species   valence    mass     pseudopotential
        C              4.00    12.01070     C ( 1.00)
        H              1.00     1.00794     H ( 1.00)

     No symmetry found



   Cartesian axes

     site n.     atom                  positions (alat units)
         1           C   tau(   1) = (  -0.0538477   0.0001013  -0.0482474  )
         2           C   tau(   2) = (  -0.1849512  -0.0000971   0.0123790  )
         3           C   tau(   3) = (   0.0538490   0.0001009   0.0482523  )
         4           H   tau(   4) = (  -0.1986090  -0.0840791   0.0720042  )
         5           H   tau(   5) = (  -0.1985342   0.0833947   0.0727081  )
         6           H   tau(   6) = (  -0.2602361   0.0002431  -0.0590752  )
         7           H   tau(   7) = (  -0.0438729  -0.0829300  -0.1103678  )
         8           H   tau(   8) = (  -0.0440152   0.0833250  -0.1101304  )
         9           H   tau(   9) = (   0.0440164   0.0833191   0.1101411  )
        10           H   tau(  10) = (   0.0438795  -0.0829346   0.1103664  )
        11           C   tau(  11) = (   0.1849499  -0.0000971  -0.0123831  )
        12           H   tau(  12) = (   0.2602422   0.0006557   0.0590606  )
        13           H   tau(  13) = (   0.1987544  -0.0842815  -0.0716874  )
        14           H   tau(  14) = (   0.1983749   0.0831906  -0.0730295  )

     number of k points=     1
                       cart. coord. in units 2pi/alat
        k(    1) = (   0.0000000   0.0000000   0.0000000), wk =   2.0000000

     Dense  grid:   163015 G-vectors     FFT dimensions: (  90,  90,  90)

     Estimated max dynamical RAM per process >      43.05 MB

     Estimated total dynamical RAM >     172.18 MB

     Initial potential from superposition of free atoms

     starting charge   25.99973, renormalised to   26.00000

     negative rho (up, down):  1.071E-03 0.000E+00
     Starting wfcs are   26 randomized atomic wfcs

     total cpu time spent up to now is        0.8 secs

     Self-consistent Calculation

     iteration #  1     ecut=    45.00 Ry     beta= 0.50
     Davidson diagonalization with overlap
     ethr =  1.00E-02,  avg # of iterations =  2.0

     negative rho (up, down):  4.878E-04 0.000E+00

     total cpu time spent up to now is        1.6 secs

     total energy              =     -59.67711609 Ry
     estimated scf accuracy    <       1.61453566 Ry

     iteration #  2     ecut=    45.00 Ry     beta= 0.50
     Davidson diagonalization with overlap
     ethr =  6.21E-03,  avg # of iterations =  2.0

     negative rho (up, down):  2.222E-04 0.000E+00

     total cpu time spent up to now is        2.4 secs

     total energy              =     -59.95724693 Ry
     estimated scf accuracy    <       0.11905801 Ry

     iteration #  3     ecut=    45.00 Ry     beta= 0.50
     Davidson diagonalization with overlap
     ethr =  4.58E-04,  avg # of iterations =  1.0

     negative rho (up, down):  8.304E-06 0.000E+00

     total cpu time spent up to now is        3.1 secs

     total energy              =     -59.94889221 Ry
     estimated scf accuracy    <       0.02763373 Ry

     iteration #  4     ecut=    45.00 Ry     beta= 0.50
     Davidson diagonalization with overlap
     ethr =  1.06E-04,  avg # of iterations =  2.0

     negative rho (up, down):  4.806E-06 0.000E+00

     total cpu time spent up to now is        3.8 secs

     total energy              =     -59.95167497 Ry
     estimated scf accuracy    <       0.00400381 Ry

     iteration #  5     ecut=    45.00 Ry     beta= 0.50
     Davidson diagonalization with overlap
     ethr =  1.54E-05,  avg # of iterations =  2.0

     negative rho (up, down):  1.663E-08 0.000E+00

     total cpu time spent up to now is        4.7 secs

     total energy              =     -59.95265251 Ry
     estimated scf accuracy    <       0.00124870 Ry

     iteration #  6     ecut=    45.00 Ry     beta= 0.50
     Davidson diagonalization with overlap
     ethr =  4.80E-06,  avg # of iterations =  2.0

     total cpu time spent up to now is        5.5 secs

     total energy              =     -59.95300264 Ry
     estimated scf accuracy    <       0.00033124 Ry

     iteration #  7     ecut=    45.00 Ry     beta= 0.50
     Davidson diagonalization with overlap
     ethr =  1.27E-06,  avg # of iterations =  2.0

     total cpu time spent up to now is        6.3 secs

     total energy              =     -59.95305607 Ry
     estimated scf accuracy    <       0.00000281 Ry

     iteration #  8     ecut=    45.00 Ry     beta= 0.50
     Davidson diagonalization with overlap
     ethr =  1.08E-08,  avg # of iterations =  4.0

     total cpu time spent up to now is        7.4 secs

     total energy              =     -59.95305988 Ry
     estimated scf accuracy    <       0.00000293 Ry

     iteration #  9     ecut=    45.00 Ry     beta= 0.50
     Davidson diagonalization with overlap
     ethr =  1.08E-08,  avg # of iterations =  1.0

     total cpu time spent up to now is        8.0 secs

     total energy              =     -59.95305934 Ry
     estimated scf accuracy    <       0.00000106 Ry

     iteration # 10     ecut=    45.00 Ry     beta= 0.50
     Davidson diagonalization with overlap
     ethr =  4.08E-09,  avg # of iterations =  2.0

     total cpu time spent up to now is        8.8 secs

     total energy              =     -59.95305971 Ry
     estimated scf accuracy    <       0.00000009 Ry

     iteration # 11     ecut=    45.00 Ry     beta= 0.50
     Davidson diagonalization with overlap
     ethr =  3.36E-10,  avg # of iterations =  1.0

     total cpu time spent up to now is        9.5 secs

     total energy              =     -59.95305970 Ry
     estimated scf accuracy    <       0.00000003 Ry

     iteration # 12     ecut=    45.00 Ry     beta= 0.50
     Davidson diagonalization with overlap
     ethr =  9.72E-11,  avg # of iterations =  2.0

     total cpu time spent up to now is       10.3 secs

     total energy              =     -59.95305971 Ry
     estimated scf accuracy    <          9.8E-10 Ry

     iteration # 13     ecut=    45.00 Ry     beta= 0.50
     Davidson diagonalization with overlap
     ethr =  3.77E-12,  avg # of iterations =  2.0

     total cpu time spent up to now is       11.1 secs

     total energy              =     -59.95305971 Ry
     estimated scf accuracy    <          8.3E-10 Ry

     iteration # 14     ecut=    45.00 Ry     beta= 0.50
     Davidson diagonalization with overlap
     ethr =  3.20E-12,  avg # of iterations =  2.0

     total cpu time spent up to now is       11.9 secs

     total energy              =     -59.95305971 Ry
     estimated scf accuracy    <          1.2E-10 Ry

     iteration # 15     ecut=    45.00 Ry     beta= 0.50
     Davidson diagonalization with overlap
     ethr =  4.69E-13,  avg # of iterations =  3.0

     total cpu time spent up to now is       12.7 secs

     total energy              =     -59.95305971 Ry
     estimated scf accuracy    <          2.2E-11 Ry

     iteration # 16     ecut=    45.00 Ry     beta= 0.50
     Davidson diagonalization with overlap
     ethr =  1.00E-13,  avg # of iterations =  3.0

     total cpu time spent up to now is       13.5 secs

     total energy              =     -59.95305971 Ry
     estimated scf accuracy    <          2.5E-11 Ry

     iteration # 17     ecut=    45.00 Ry     beta= 0.50
     Davidson diagonalization with overlap
     ethr =  1.00E-13,  avg # of iterations =  1.0

     total cpu time spent up to now is       14.2 secs

     total energy              =     -59.95305971 Ry
     estimated scf accuracy    <          6.7E-12 Ry

     iteration # 18     ecut=    45.00 Ry     beta= 0.50
     Davidson diagonalization with overlap
     ethr =  1.00E-13,  avg # of iterations =  2.0

     total cpu time spent up to now is       14.9 secs

     total energy              =     -59.95305971 Ry
     estimated scf accuracy    <          2.0E-12 Ry

     iteration # 19     ecut=    45.00 Ry     beta= 0.50
     Davidson diagonalization with overlap
     ethr =  1.00E-13,  avg # of iterations =  1.0

     total cpu time spent up to now is       15.6 secs

     End of self-consistent calculation

          k = 0.0000 0.0000 0.0000 ( 20326 PWs)   bands (ev):

   -19.1956 -17.3846 -14.9809 -13.5912 -10.9174  -9.8635  -9.7200  -9.4251
    -8.3584  -7.8483  -7.5477  -7.2110  -7.1159

     highest occupied level (ev):    -7.1159

!    total energy              =     -59.95305971 Ry
     estimated scf accuracy    <          4.0E-13 Ry

     The total energy is the sum of the following terms:
     one-electron contribution =    -203.27191995 Ry
     hartree contribution      =     105.10241381 Ry
     xc contribution           =     -24.28983879 Ry
     ewald contribution        =      62.50628522 Ry

     convergence has been achieved in  19 iterations

     Forces acting on atoms (cartesian axes, Ry/au):

     atom    1 type  1   force =     0.00053727   -0.00001741   -0.00599533
     atom    2 type  1   force =    -0.00497382    0.00000628    0.00221686
     atom    3 type  1   force =    -0.00052368    0.00001434    0.00597906
     atom    4 type  2   force =     0.00030602    0.00068089   -0.00050975
     atom    5 type  2   force =     0.00030519   -0.00066028   -0.00054297
     atom    6 type  2   force =     0.00090844   -0.00003052    0.00067804
     atom    7 type  2   force =    -0.00016309    0.00059608    0.00052801
     atom    8 type  2   force =    -0.00015600   -0.00060878    0.00049748
     atom    9 type  2   force =     0.00015438   -0.00058342   -0.00050895
     atom   10 type  2   force =     0.00016216    0.00060311   -0.00050703
     atom   11 type  1   force =     0.00496722    0.00001484   -0.00220207
     atom   12 type  2   force =    -0.00091561   -0.00006837   -0.00067432
     atom   13 type  2   force =    -0.00031539    0.00070141    0.00048040
     atom   14 type  2   force =    -0.00029309   -0.00064816    0.00056057

     Total force =     0.011827     Total SCF correction =     0.000001

     Writing output data file ./Buthane.save/

     init_run     :      0.70s CPU      0.75s WALL (       1 calls)
     electrons    :     14.45s CPU     14.76s WALL (       1 calls)
     forces       :      0.47s CPU      0.49s WALL (       1 calls)

     Called by init_run:
     wfcinit      :      0.30s CPU      0.30s WALL (       1 calls)
     potinit      :      0.26s CPU      0.29s WALL (       1 calls)
     hinit0       :      0.09s CPU      0.11s WALL (       1 calls)

     Called by electrons:
     c_bands      :      8.47s CPU      8.52s WALL (      19 calls)
     sum_band     :      1.97s CPU      1.98s WALL (      19 calls)
     v_of_rho     :      3.26s CPU      3.52s WALL (      20 calls)
     mix_rho      :      0.79s CPU      0.80s WALL (      19 calls)

     Called by c_bands:
     init_us_2    :      0.14s CPU      0.14s WALL (      39 calls)
     regterg      :      8.30s CPU      8.35s WALL (      19 calls)

     Called by *egterg:
     rdiaghg      :      0.04s CPU      0.04s WALL (      56 calls)
     h_psi        :      7.68s CPU      7.73s WALL (      57 calls)
     g_psi        :      0.01s CPU      0.01s WALL (      37 calls)

     Called by h_psi:
     h_psi:calbec :      0.88s CPU      0.88s WALL (      57 calls)
     vloc_psi     :      6.08s CPU      6.12s WALL (      57 calls)
     add_vuspsi   :      0.68s CPU      0.69s WALL (      57 calls)

     General routines
     calbec       :      0.95s CPU      0.95s WALL (      61 calls)
     fft          :      2.26s CPU      2.32s WALL (     168 calls)
     ffts         :      0.26s CPU      0.26s WALL (      19 calls)
     fftw         :      5.88s CPU      5.92s WALL (     883 calls)

     Parallel routines

     PWSCF        :     15.68s CPU     16.08s WALL


   This run was terminated on:   1:12:53  24May2021            

=------------------------------------------------------------------------------=
   JOB DONE.
=------------------------------------------------------------------------------=
