
     Program PWSCF v.6.7GPU starts on 24May2021 at  4: 6:59 

     This program is part of the open-source Quantum ESPRESSO suite
     for quantum simulation of materials; please cite
         "P. Giannozzi et al., J. Phys.:Condens. Matter 21 395502 (2009);
         "P. Giannozzi et al., J. Phys.:Condens. Matter 29 465901 (2017);
         "P. Giannozzi et al., J. Chem. Phys. 152 154105 (2020);
          URL http://www.quantum-espresso.org", 
     in publications or presentations arising from this work. More details at
     http://www.quantum-espresso.org/quote

     Parallel version (MPI), running on     4 processors

     MPI processes distributed on     1 nodes
     R & G space division:  proc/nbgrp/npool/nimage =       4
     Waiting for input...
     Reading input from standard input
     Message from routine read_cards :
     DEPRECATED: no units specified in CELL_PARAMETERS card

     Current dimensions of program PWSCF are:
     Max number of different atomic species (ntypx) = 10
     Max number of k-points (npk) =  40000
     Max angular momentum in pseudopotentials (lmaxx) =  3

     gamma-point specific algorithms are used

     Subspace diagonalization in iterative solution of the eigenvalue problem:
     one sub-group per band group will be used
     scalapack distributed-memory algorithm (size of sub-group:  2*  2 procs)


     Parallelization info
     --------------------
     sticks:   dense  smooth     PW     G-vecs:    dense   smooth      PW
     Min        1115    1115    276                55933    55933    7000
     Max        1118    1118    278                55934    55934    7006
     Sum        4469    4469   1109               223735   223735   28017

     Using Slab Decomposition



     bravais-lattice index     =            0
     lattice parameter (alat)  =      20.0000  a.u.
     unit-cell volume          =    8000.0000 (a.u.)^3
     number of atoms/cell      =           11
     number of atomic types    =            2
     number of electrons       =        26.00
     number of Kohn-Sham states=           13
     kinetic-energy cutoff     =      35.0000  Ry
     charge density cutoff     =     140.0000  Ry
     scf convergence threshold =      1.0E-12
     mixing beta               =       0.5000
     number of iterations used =            8  plain     mixing
     Exchange-correlation= PBE
                           (   1   4   3   4   0   0   0)

     celldm(1)=  20.000000  celldm(2)=   0.000000  celldm(3)=   0.000000
     celldm(4)=   0.000000  celldm(5)=   0.000000  celldm(6)=   0.000000

     crystal axes: (cart. coord. in units of alat)
               a(1) = (   1.000000   0.000000   0.000000 )  
               a(2) = (   0.000000   1.000000   0.000000 )  
               a(3) = (   0.000000   0.000000   1.000000 )  

     reciprocal axes: (cart. coord. in units 2 pi/alat)
               b(1) = (  1.000000  0.000000  0.000000 )  
               b(2) = (  0.000000  1.000000  0.000000 )  
               b(3) = (  0.000000  0.000000  1.000000 )  


     PseudoPot. # 1 for C  read from file:
     /home/ciga/builds/pseudo_potentials/C.upf
     MD5 check sum: d80ec9912146af6c4c1760317d1f95e9
     Pseudo is Norm-conserving + core correction, Zval =  4.0
     Generated using ONCVPSP code by D. R. Hamann
     Using radial grid of 1248 points,  4 beta functions with: 
                l(1) =   0
                l(2) =   0
                l(3) =   1
                l(4) =   1

     PseudoPot. # 2 for H  read from file:
     /home/ciga/builds/pseudo_potentials/H.upf
     MD5 check sum: 418cee52d0c413ae40802e6cc37ab9e3
     Pseudo is Norm-conserving, Zval =  1.0
     Generated using ONCVPSP code by D. R. Hamann
     Using radial grid of 1166 points,  3 beta functions with: 
                l(1) =   0
                l(2) =   0
                l(3) =   1

     atomic species   valence    mass     pseudopotential
        C              4.00    12.01070     C ( 1.00)
        H              1.00     1.00794     H ( 1.00)

     No symmetry found



   Cartesian axes

     site n.     atom                  positions (alat units)
         1           C   tau(   1) = (   0.0694474   0.0000000   0.0000000  )
         2           C   tau(   2) = (  -0.0694474   0.0000000   0.0000000  )
         3           C   tau(   3) = (   0.1115657   0.0000000   0.1196012  )
         4           C   tau(   4) = (  -0.1115657   0.0000000   0.1196012  )
         5           C   tau(   5) = (  -0.0002921   0.0000000   0.2087482  )
         6           H   tau(   6) = (   0.2105633   0.0000000   0.1479990  )
         7           H   tau(   7) = (   0.1289402   0.0000000  -0.0840688  )
         8           H   tau(   8) = (  -0.1289700   0.0000000  -0.0840477  )
         9           H   tau(   9) = (  -0.2105947   0.0000000   0.1478893  )
        10           H   tau(  10) = (  -0.0001026   0.0836626   0.2688106  )
        11           H   tau(  11) = (  -0.0005388  -0.0834139   0.2691554  )

     number of k points=     1
                       cart. coord. in units 2pi/alat
        k(    1) = (   0.0000000   0.0000000   0.0000000), wk =   2.0000000

     Dense  grid:   111868 G-vectors     FFT dimensions: (  75,  75,  75)

     Estimated max dynamical RAM per process >      27.58 MB

     Estimated total dynamical RAM >     110.33 MB

     Initial potential from superposition of free atoms

     starting charge   25.99972, renormalised to   26.00000

     negative rho (up, down):  3.815E-03 0.000E+00
     Starting wfcs are   26 randomized atomic wfcs

     total cpu time spent up to now is        0.5 secs

     Self-consistent Calculation

     iteration #  1     ecut=    35.00 Ry     beta= 0.50
     Davidson diagonalization with overlap
     ethr =  1.00E-02,  avg # of iterations =  2.0

     negative rho (up, down):  1.796E-03 0.000E+00

     total cpu time spent up to now is        0.9 secs

     total energy              =     -66.64826716 Ry
     estimated scf accuracy    <       1.16809492 Ry

     iteration #  2     ecut=    35.00 Ry     beta= 0.50
     Davidson diagonalization with overlap
     ethr =  4.49E-03,  avg # of iterations =  2.0

     negative rho (up, down):  7.745E-04 0.000E+00

     total cpu time spent up to now is        1.3 secs

     total energy              =     -66.81831550 Ry
     estimated scf accuracy    <       0.09314083 Ry

     iteration #  3     ecut=    35.00 Ry     beta= 0.50
     Davidson diagonalization with overlap
     ethr =  3.58E-04,  avg # of iterations =  2.0

     negative rho (up, down):  5.698E-05 0.000E+00

     total cpu time spent up to now is        1.7 secs

     total energy              =     -66.81701209 Ry
     estimated scf accuracy    <       0.01651940 Ry

     iteration #  4     ecut=    35.00 Ry     beta= 0.50
     Davidson diagonalization with overlap
     ethr =  6.35E-05,  avg # of iterations =  2.0

     negative rho (up, down):  5.068E-06 0.000E+00

     total cpu time spent up to now is        2.1 secs

     total energy              =     -66.81916760 Ry
     estimated scf accuracy    <       0.00189968 Ry

     iteration #  5     ecut=    35.00 Ry     beta= 0.50
     Davidson diagonalization with overlap
     ethr =  7.31E-06,  avg # of iterations =  3.0

     negative rho (up, down):  6.830E-07 0.000E+00

     total cpu time spent up to now is        2.5 secs

     total energy              =     -66.81972206 Ry
     estimated scf accuracy    <       0.00109929 Ry

     iteration #  6     ecut=    35.00 Ry     beta= 0.50
     Davidson diagonalization with overlap
     ethr =  4.23E-06,  avg # of iterations =  2.0

     total cpu time spent up to now is        2.9 secs

     total energy              =     -66.81996131 Ry
     estimated scf accuracy    <       0.00000741 Ry

     iteration #  7     ecut=    35.00 Ry     beta= 0.50
     Davidson diagonalization with overlap
     ethr =  2.85E-08,  avg # of iterations =  6.0

     total cpu time spent up to now is        3.5 secs

     total energy              =     -66.81996650 Ry
     estimated scf accuracy    <       0.00002504 Ry

     iteration #  8     ecut=    35.00 Ry     beta= 0.50
     Davidson diagonalization with overlap
     ethr =  2.85E-08,  avg # of iterations =  4.0

     total cpu time spent up to now is        3.9 secs

     total energy              =     -66.81996779 Ry
     estimated scf accuracy    <       0.00000290 Ry

     iteration #  9     ecut=    35.00 Ry     beta= 0.50
     Davidson diagonalization with overlap
     ethr =  1.12E-08,  avg # of iterations =  2.0

     total cpu time spent up to now is        4.3 secs

     total energy              =     -66.81996855 Ry
     estimated scf accuracy    <       0.00000022 Ry

     iteration # 10     ecut=    35.00 Ry     beta= 0.50
     Davidson diagonalization with overlap
     ethr =  8.34E-10,  avg # of iterations =  5.0

     total cpu time spent up to now is        4.8 secs

     total energy              =     -66.81996863 Ry
     estimated scf accuracy    <       0.00000004 Ry

     iteration # 11     ecut=    35.00 Ry     beta= 0.50
     Davidson diagonalization with overlap
     ethr =  1.45E-10,  avg # of iterations =  4.0

     total cpu time spent up to now is        5.2 secs

     total energy              =     -66.81996863 Ry
     estimated scf accuracy    <          2.0E-09 Ry

     iteration # 12     ecut=    35.00 Ry     beta= 0.50
     Davidson diagonalization with overlap
     ethr =  7.61E-12,  avg # of iterations =  5.0

     total cpu time spent up to now is        5.7 secs

     total energy              =     -66.81996863 Ry
     estimated scf accuracy    <          1.8E-09 Ry

     iteration # 13     ecut=    35.00 Ry     beta= 0.50
     Davidson diagonalization with overlap
     ethr =  6.74E-12,  avg # of iterations =  2.0

     total cpu time spent up to now is        6.1 secs

     total energy              =     -66.81996863 Ry
     estimated scf accuracy    <          9.2E-11 Ry

     iteration # 14     ecut=    35.00 Ry     beta= 0.50
     Davidson diagonalization with overlap
     ethr =  3.54E-13,  avg # of iterations =  6.0

     total cpu time spent up to now is        6.6 secs

     total energy              =     -66.81996863 Ry
     estimated scf accuracy    <          1.4E-10 Ry

     iteration # 15     ecut=    35.00 Ry     beta= 0.50
     Davidson diagonalization with overlap
     ethr =  3.54E-13,  avg # of iterations =  3.0

     total cpu time spent up to now is        7.0 secs

     total energy              =     -66.81996863 Ry
     estimated scf accuracy    <          8.0E-12 Ry

     iteration # 16     ecut=    35.00 Ry     beta= 0.50
     Davidson diagonalization with overlap
     ethr =  1.00E-13,  avg # of iterations =  2.0

     total cpu time spent up to now is        7.3 secs

     End of self-consistent calculation

          k = 0.0000 0.0000 0.0000 ( 14009 PWs)   bands (ev):

   -20.9911 -17.0550 -17.0115 -13.0902 -12.4692 -12.1470 -10.3432  -9.0364
    -8.4979  -8.1656  -8.0746  -6.9572  -4.9095

     highest occupied level (ev):    -4.9095

!    total energy              =     -66.81996863 Ry
     estimated scf accuracy    <          3.5E-13 Ry

     The total energy is the sum of the following terms:
     one-electron contribution =    -228.99361318 Ry
     hartree contribution      =     117.89859339 Ry
     xc contribution           =     -25.44853386 Ry
     ewald contribution        =      69.72358501 Ry

     convergence has been achieved in  16 iterations

     Forces acting on atoms (cartesian axes, Ry/au):

     atom    1 type  1   force =    -0.00038475    0.00002953   -0.02058897
     atom    2 type  1   force =     0.00028885   -0.00004881   -0.02091828
     atom    3 type  1   force =     0.01519777   -0.00052068    0.01178878
     atom    4 type  1   force =    -0.01810266    0.00017589    0.00973644
     atom    5 type  1   force =     0.00288312    0.00021433   -0.01626177
     atom    6 type  2   force =    -0.00036134    0.00002033    0.00566192
     atom    7 type  2   force =    -0.00050111    0.00005921   -0.00428433
     atom    8 type  2   force =     0.00055501   -0.00000873   -0.00432101
     atom    9 type  2   force =     0.00019828   -0.00000922    0.00550279
     atom   10 type  2   force =    -0.00020015    0.01302262    0.01693754
     atom   11 type  2   force =     0.00042697   -0.01293448    0.01674689

     Total force =     0.054146     Total SCF correction =     0.000001

     Writing output data file ./Cyclopentadiene.save/

     init_run     :      0.42s CPU      0.44s WALL (       1 calls)
     electrons    :      6.67s CPU      6.80s WALL (       1 calls)
     forces       :      0.26s CPU      0.27s WALL (       1 calls)

     Called by init_run:
     wfcinit      :      0.15s CPU      0.16s WALL (       1 calls)
     potinit      :      0.17s CPU      0.18s WALL (       1 calls)
     hinit0       :      0.07s CPU      0.07s WALL (       1 calls)

     Called by electrons:
     c_bands      :      4.01s CPU      4.07s WALL (      16 calls)
     sum_band     :      0.81s CPU      0.82s WALL (      16 calls)
     v_of_rho     :      1.53s CPU      1.59s WALL (      17 calls)
     mix_rho      :      0.36s CPU      0.36s WALL (      16 calls)

     Called by c_bands:
     init_us_2    :      0.06s CPU      0.07s WALL (      33 calls)
     regterg      :      3.92s CPU      3.98s WALL (      16 calls)

     Called by *egterg:
     rdiaghg      :      0.04s CPU      0.04s WALL (      68 calls)
     h_psi        :      3.47s CPU      3.52s WALL (      69 calls)
     g_psi        :      0.01s CPU      0.01s WALL (      52 calls)

     Called by h_psi:
     h_psi:calbec :      0.47s CPU      0.48s WALL (      69 calls)
     vloc_psi     :      2.62s CPU      2.66s WALL (      69 calls)
     add_vuspsi   :      0.37s CPU      0.37s WALL (      69 calls)

     General routines
     calbec       :      0.51s CPU      0.51s WALL (      73 calls)
     fft          :      0.97s CPU      0.99s WALL (     144 calls)
     ffts         :      0.11s CPU      0.11s WALL (      16 calls)
     fftw         :      2.41s CPU      2.45s WALL (     820 calls)

     Parallel routines

     PWSCF        :      7.43s CPU      7.60s WALL


   This run was terminated on:   4: 7: 6  24May2021            

=------------------------------------------------------------------------------=
   JOB DONE.
=------------------------------------------------------------------------------=
