
     Program PWSCF v.6.7GPU starts on 24May2021 at  4: 8:44 

     This program is part of the open-source Quantum ESPRESSO suite
     for quantum simulation of materials; please cite
         "P. Giannozzi et al., J. Phys.:Condens. Matter 21 395502 (2009);
         "P. Giannozzi et al., J. Phys.:Condens. Matter 29 465901 (2017);
         "P. Giannozzi et al., J. Chem. Phys. 152 154105 (2020);
          URL http://www.quantum-espresso.org", 
     in publications or presentations arising from this work. More details at
     http://www.quantum-espresso.org/quote

     Parallel version (MPI), running on     4 processors

     MPI processes distributed on     1 nodes
     R & G space division:  proc/nbgrp/npool/nimage =       4
     Waiting for input...
     Reading input from standard input
     Message from routine read_cards :
     DEPRECATED: no units specified in CELL_PARAMETERS card

     Current dimensions of program PWSCF are:
     Max number of different atomic species (ntypx) = 10
     Max number of k-points (npk) =  40000
     Max angular momentum in pseudopotentials (lmaxx) =  3

     gamma-point specific algorithms are used

     Subspace diagonalization in iterative solution of the eigenvalue problem:
     one sub-group per band group will be used
     scalapack distributed-memory algorithm (size of sub-group:  2*  2 procs)


     Parallelization info
     --------------------
     sticks:   dense  smooth     PW     G-vecs:    dense   smooth      PW
     Min        2230    2230    557               158211   158211   19778
     Max        2234    2234    560               158214   158214   19781
     Sum        8929    8929   2233               632851   632851   79117

     Using Slab Decomposition



     bravais-lattice index     =            0
     lattice parameter (alat)  =      20.0000  a.u.
     unit-cell volume          =    8000.0000 (a.u.)^3
     number of atoms/cell      =           11
     number of atomic types    =            2
     number of electrons       =        26.00
     number of Kohn-Sham states=           13
     kinetic-energy cutoff     =      70.0000  Ry
     charge density cutoff     =     280.0000  Ry
     scf convergence threshold =      1.0E-12
     mixing beta               =       0.5000
     number of iterations used =            8  plain     mixing
     Exchange-correlation= PBE
                           (   1   4   3   4   0   0   0)

     celldm(1)=  20.000000  celldm(2)=   0.000000  celldm(3)=   0.000000
     celldm(4)=   0.000000  celldm(5)=   0.000000  celldm(6)=   0.000000

     crystal axes: (cart. coord. in units of alat)
               a(1) = (   1.000000   0.000000   0.000000 )  
               a(2) = (   0.000000   1.000000   0.000000 )  
               a(3) = (   0.000000   0.000000   1.000000 )  

     reciprocal axes: (cart. coord. in units 2 pi/alat)
               b(1) = (  1.000000  0.000000  0.000000 )  
               b(2) = (  0.000000  1.000000  0.000000 )  
               b(3) = (  0.000000  0.000000  1.000000 )  


     PseudoPot. # 1 for C  read from file:
     /home/ciga/builds/pseudo_potentials/C.upf
     MD5 check sum: d80ec9912146af6c4c1760317d1f95e9
     Pseudo is Norm-conserving + core correction, Zval =  4.0
     Generated using ONCVPSP code by D. R. Hamann
     Using radial grid of 1248 points,  4 beta functions with: 
                l(1) =   0
                l(2) =   0
                l(3) =   1
                l(4) =   1

     PseudoPot. # 2 for H  read from file:
     /home/ciga/builds/pseudo_potentials/H.upf
     MD5 check sum: 418cee52d0c413ae40802e6cc37ab9e3
     Pseudo is Norm-conserving, Zval =  1.0
     Generated using ONCVPSP code by D. R. Hamann
     Using radial grid of 1166 points,  3 beta functions with: 
                l(1) =   0
                l(2) =   0
                l(3) =   1

     atomic species   valence    mass     pseudopotential
        C              4.00    12.01070     C ( 1.00)
        H              1.00     1.00794     H ( 1.00)

     No symmetry found



   Cartesian axes

     site n.     atom                  positions (alat units)
         1           C   tau(   1) = (   0.0694474   0.0000000   0.0000000  )
         2           C   tau(   2) = (  -0.0694474   0.0000000   0.0000000  )
         3           C   tau(   3) = (   0.1115657   0.0000000   0.1196012  )
         4           C   tau(   4) = (  -0.1115657   0.0000000   0.1196012  )
         5           C   tau(   5) = (  -0.0002921   0.0000000   0.2087482  )
         6           H   tau(   6) = (   0.2105633   0.0000000   0.1479990  )
         7           H   tau(   7) = (   0.1289402   0.0000000  -0.0840688  )
         8           H   tau(   8) = (  -0.1289700   0.0000000  -0.0840477  )
         9           H   tau(   9) = (  -0.2105947   0.0000000   0.1478893  )
        10           H   tau(  10) = (  -0.0001026   0.0836626   0.2688106  )
        11           H   tau(  11) = (  -0.0005388  -0.0834139   0.2691554  )

     number of k points=     1
                       cart. coord. in units 2pi/alat
        k(    1) = (   0.0000000   0.0000000   0.0000000), wk =   2.0000000

     Dense  grid:   316426 G-vectors     FFT dimensions: ( 108, 108, 108)

     Estimated max dynamical RAM per process >      78.09 MB

     Estimated total dynamical RAM >     312.35 MB

     Initial potential from superposition of free atoms

     starting charge   25.99972, renormalised to   26.00000

     negative rho (up, down):  1.350E-04 0.000E+00
     Starting wfcs are   26 randomized atomic wfcs

     total cpu time spent up to now is        1.4 secs

     Self-consistent Calculation

     iteration #  1     ecut=    70.00 Ry     beta= 0.50
     Davidson diagonalization with overlap
     ethr =  1.00E-02,  avg # of iterations =  2.0

     negative rho (up, down):  4.681E-05 0.000E+00

     total cpu time spent up to now is        2.9 secs

     total energy              =     -66.99711925 Ry
     estimated scf accuracy    <       1.32359473 Ry

     iteration #  2     ecut=    70.00 Ry     beta= 0.50
     Davidson diagonalization with overlap
     ethr =  5.09E-03,  avg # of iterations =  2.0

     negative rho (up, down):  1.828E-05 0.000E+00

     total cpu time spent up to now is        4.4 secs

     total energy              =     -67.20581218 Ry
     estimated scf accuracy    <       0.09690596 Ry

     iteration #  3     ecut=    70.00 Ry     beta= 0.50
     Davidson diagonalization with overlap
     ethr =  3.73E-04,  avg # of iterations =  2.0

     negative rho (up, down):  1.593E-06 0.000E+00

     total cpu time spent up to now is        5.6 secs

     total energy              =     -67.20503514 Ry
     estimated scf accuracy    <       0.01794456 Ry

     iteration #  4     ecut=    70.00 Ry     beta= 0.50
     Davidson diagonalization with overlap
     ethr =  6.90E-05,  avg # of iterations =  2.0

     negative rho (up, down):  2.599E-07 0.000E+00

     total cpu time spent up to now is        7.1 secs

     total energy              =     -67.20763570 Ry
     estimated scf accuracy    <       0.00213236 Ry

     iteration #  5     ecut=    70.00 Ry     beta= 0.50
     Davidson diagonalization with overlap
     ethr =  8.20E-06,  avg # of iterations =  3.0

     negative rho (up, down):  9.674E-08 0.000E+00

     total cpu time spent up to now is        8.7 secs

     total energy              =     -67.20827797 Ry
     estimated scf accuracy    <       0.00135256 Ry

     iteration #  6     ecut=    70.00 Ry     beta= 0.50
     Davidson diagonalization with overlap
     ethr =  5.20E-06,  avg # of iterations =  2.0

     total cpu time spent up to now is       10.1 secs

     total energy              =     -67.20854682 Ry
     estimated scf accuracy    <       0.00000964 Ry

     iteration #  7     ecut=    70.00 Ry     beta= 0.50
     Davidson diagonalization with overlap
     ethr =  3.71E-08,  avg # of iterations =  6.0

     total cpu time spent up to now is       12.4 secs

     total energy              =     -67.20856083 Ry
     estimated scf accuracy    <       0.00002264 Ry

     iteration #  8     ecut=    70.00 Ry     beta= 0.50
     Davidson diagonalization with overlap
     ethr =  3.71E-08,  avg # of iterations =  2.0

     total cpu time spent up to now is       13.9 secs

     total energy              =     -67.20856351 Ry
     estimated scf accuracy    <       0.00000103 Ry

     iteration #  9     ecut=    70.00 Ry     beta= 0.50
     Davidson diagonalization with overlap
     ethr =  3.96E-09,  avg # of iterations =  3.0

     total cpu time spent up to now is       15.5 secs

     total energy              =     -67.20856383 Ry
     estimated scf accuracy    <       0.00000003 Ry

     iteration # 10     ecut=    70.00 Ry     beta= 0.50
     Davidson diagonalization with overlap
     ethr =  1.03E-10,  avg # of iterations =  5.0

     total cpu time spent up to now is       17.3 secs

     total energy              =     -67.20856384 Ry
     estimated scf accuracy    <          7.5E-09 Ry

     iteration # 11     ecut=    70.00 Ry     beta= 0.50
     Davidson diagonalization with overlap
     ethr =  2.88E-11,  avg # of iterations =  2.0

     total cpu time spent up to now is       18.7 secs

     total energy              =     -67.20856384 Ry
     estimated scf accuracy    <          7.0E-09 Ry

     iteration # 12     ecut=    70.00 Ry     beta= 0.50
     Davidson diagonalization with overlap
     ethr =  2.68E-11,  avg # of iterations =  2.0

     total cpu time spent up to now is       20.2 secs

     total energy              =     -67.20856384 Ry
     estimated scf accuracy    <          5.2E-11 Ry

     iteration # 13     ecut=    70.00 Ry     beta= 0.50
     Davidson diagonalization with overlap
     ethr =  2.00E-13,  avg # of iterations =  6.0

     total cpu time spent up to now is       22.1 secs

     total energy              =     -67.20856384 Ry
     estimated scf accuracy    <          1.1E-10 Ry

     iteration # 14     ecut=    70.00 Ry     beta= 0.50
     Davidson diagonalization with overlap
     ethr =  2.00E-13,  avg # of iterations =  4.0

     total cpu time spent up to now is       23.7 secs

     total energy              =     -67.20856384 Ry
     estimated scf accuracy    <          1.9E-12 Ry

     iteration # 15     ecut=    70.00 Ry     beta= 0.50
     Davidson diagonalization with overlap
     ethr =  1.00E-13,  avg # of iterations =  1.0

     total cpu time spent up to now is       24.9 secs

     total energy              =     -67.20856384 Ry
     estimated scf accuracy    <          2.5E-12 Ry

     iteration # 16     ecut=    70.00 Ry     beta= 0.50
     Davidson diagonalization with overlap
     ethr =  1.00E-13,  avg # of iterations =  1.0

     total cpu time spent up to now is       26.0 secs

     End of self-consistent calculation

          k = 0.0000 0.0000 0.0000 ( 39559 PWs)   bands (ev):

   -20.8056 -16.9042 -16.8685 -13.0163 -12.4014 -12.1248 -10.3295  -9.0597
    -8.5420  -8.1950  -8.1009  -6.9601  -4.9348

     highest occupied level (ev):    -4.9348

!    total energy              =     -67.20856384 Ry
     estimated scf accuracy    <          4.1E-13 Ry

     The total energy is the sum of the following terms:
     one-electron contribution =    -229.68760423 Ry
     hartree contribution      =     118.33210356 Ry
     xc contribution           =     -25.57664813 Ry
     ewald contribution        =      69.72358497 Ry

     convergence has been achieved in  16 iterations

     Forces acting on atoms (cartesian axes, Ry/au):

     atom    1 type  1   force =    -0.00921036    0.00002990   -0.02306364
     atom    2 type  1   force =     0.00912606   -0.00004850   -0.02341456
     atom    3 type  1   force =     0.00492461   -0.00052046    0.02241089
     atom    4 type  1   force =    -0.00825194    0.00017526    0.02006451
     atom    5 type  1   force =     0.00329031    0.00022640   -0.03204526
     atom    6 type  2   force =    -0.00604834    0.00001992    0.00393192
     atom    7 type  2   force =    -0.00402345    0.00005672    0.00077343
     atom    8 type  2   force =     0.00407919   -0.00000815    0.00074056
     atom    9 type  2   force =     0.00589757   -0.00000919    0.00379567
     atom   10 type  2   force =    -0.00021538    0.00867436    0.01351193
     atom   11 type  2   force =     0.00043172   -0.00859627    0.01329456

     Total force =     0.062669     Total SCF correction =     0.000001

     Writing output data file ./Cyclopentadiene.save/

     init_run     :      1.29s CPU      1.36s WALL (       1 calls)
     electrons    :     24.25s CPU     24.64s WALL (       1 calls)
     forces       :      0.78s CPU      0.80s WALL (       1 calls)

     Called by init_run:
     wfcinit      :      0.56s CPU      0.58s WALL (       1 calls)
     potinit      :      0.45s CPU      0.48s WALL (       1 calls)
     hinit0       :      0.18s CPU      0.19s WALL (       1 calls)

     Called by electrons:
     c_bands      :     15.02s CPU     15.11s WALL (      16 calls)
     sum_band     :      3.07s CPU      3.10s WALL (      16 calls)
     v_of_rho     :      4.84s CPU      5.11s WALL (      17 calls)
     mix_rho      :      1.43s CPU      1.45s WALL (      16 calls)

     Called by c_bands:
     init_us_2    :      0.18s CPU      0.19s WALL (      33 calls)
     regterg      :     14.78s CPU     14.86s WALL (      16 calls)

     Called by *egterg:
     rdiaghg      :      0.04s CPU      0.04s WALL (      61 calls)
     h_psi        :     13.32s CPU     13.41s WALL (      62 calls)
     g_psi        :      0.03s CPU      0.03s WALL (      45 calls)

     Called by h_psi:
     h_psi:calbec :      1.34s CPU      1.35s WALL (      62 calls)
     vloc_psi     :     10.83s CPU     10.91s WALL (      62 calls)
     add_vuspsi   :      1.07s CPU      1.07s WALL (      62 calls)

     General routines
     calbec       :      1.45s CPU      1.45s WALL (      66 calls)
     fft          :      3.54s CPU      3.60s WALL (     144 calls)
     ffts         :      0.42s CPU      0.42s WALL (      16 calls)
     fftw         :     10.48s CPU     10.56s WALL (     810 calls)

     Parallel routines

     PWSCF        :     26.39s CPU     26.89s WALL


   This run was terminated on:   4: 9:11  24May2021            

=------------------------------------------------------------------------------=
   JOB DONE.
=------------------------------------------------------------------------------=
