
     Program PWSCF v.6.7GPU starts on 24May2021 at  4: 7:16 

     This program is part of the open-source Quantum ESPRESSO suite
     for quantum simulation of materials; please cite
         "P. Giannozzi et al., J. Phys.:Condens. Matter 21 395502 (2009);
         "P. Giannozzi et al., J. Phys.:Condens. Matter 29 465901 (2017);
         "P. Giannozzi et al., J. Chem. Phys. 152 154105 (2020);
          URL http://www.quantum-espresso.org", 
     in publications or presentations arising from this work. More details at
     http://www.quantum-espresso.org/quote

     Parallel version (MPI), running on     4 processors

     MPI processes distributed on     1 nodes
     R & G space division:  proc/nbgrp/npool/nimage =       4
     Waiting for input...
     Reading input from standard input
     Message from routine read_cards :
     DEPRECATED: no units specified in CELL_PARAMETERS card

     Current dimensions of program PWSCF are:
     Max number of different atomic species (ntypx) = 10
     Max number of k-points (npk) =  40000
     Max angular momentum in pseudopotentials (lmaxx) =  3

     gamma-point specific algorithms are used

     Subspace diagonalization in iterative solution of the eigenvalue problem:
     one sub-group per band group will be used
     scalapack distributed-memory algorithm (size of sub-group:  2*  2 procs)


     Parallelization info
     --------------------
     sticks:   dense  smooth     PW     G-vecs:    dense   smooth      PW
     Min        1429    1429    358                81505    81505   10162
     Max        1432    1432    359                81512    81512   10165
     Sum        5721    5721   1433               326029   326029   40651

     Using Slab Decomposition



     bravais-lattice index     =            0
     lattice parameter (alat)  =      20.0000  a.u.
     unit-cell volume          =    8000.0000 (a.u.)^3
     number of atoms/cell      =           11
     number of atomic types    =            2
     number of electrons       =        26.00
     number of Kohn-Sham states=           13
     kinetic-energy cutoff     =      45.0000  Ry
     charge density cutoff     =     180.0000  Ry
     scf convergence threshold =      1.0E-12
     mixing beta               =       0.5000
     number of iterations used =            8  plain     mixing
     Exchange-correlation= PBE
                           (   1   4   3   4   0   0   0)

     celldm(1)=  20.000000  celldm(2)=   0.000000  celldm(3)=   0.000000
     celldm(4)=   0.000000  celldm(5)=   0.000000  celldm(6)=   0.000000

     crystal axes: (cart. coord. in units of alat)
               a(1) = (   1.000000   0.000000   0.000000 )  
               a(2) = (   0.000000   1.000000   0.000000 )  
               a(3) = (   0.000000   0.000000   1.000000 )  

     reciprocal axes: (cart. coord. in units 2 pi/alat)
               b(1) = (  1.000000  0.000000  0.000000 )  
               b(2) = (  0.000000  1.000000  0.000000 )  
               b(3) = (  0.000000  0.000000  1.000000 )  


     PseudoPot. # 1 for C  read from file:
     /home/ciga/builds/pseudo_potentials/C.upf
     MD5 check sum: d80ec9912146af6c4c1760317d1f95e9
     Pseudo is Norm-conserving + core correction, Zval =  4.0
     Generated using ONCVPSP code by D. R. Hamann
     Using radial grid of 1248 points,  4 beta functions with: 
                l(1) =   0
                l(2) =   0
                l(3) =   1
                l(4) =   1

     PseudoPot. # 2 for H  read from file:
     /home/ciga/builds/pseudo_potentials/H.upf
     MD5 check sum: 418cee52d0c413ae40802e6cc37ab9e3
     Pseudo is Norm-conserving, Zval =  1.0
     Generated using ONCVPSP code by D. R. Hamann
     Using radial grid of 1166 points,  3 beta functions with: 
                l(1) =   0
                l(2) =   0
                l(3) =   1

     atomic species   valence    mass     pseudopotential
        C              4.00    12.01070     C ( 1.00)
        H              1.00     1.00794     H ( 1.00)

     No symmetry found



   Cartesian axes

     site n.     atom                  positions (alat units)
         1           C   tau(   1) = (   0.0694474   0.0000000   0.0000000  )
         2           C   tau(   2) = (  -0.0694474   0.0000000   0.0000000  )
         3           C   tau(   3) = (   0.1115657   0.0000000   0.1196012  )
         4           C   tau(   4) = (  -0.1115657   0.0000000   0.1196012  )
         5           C   tau(   5) = (  -0.0002921   0.0000000   0.2087482  )
         6           H   tau(   6) = (   0.2105633   0.0000000   0.1479990  )
         7           H   tau(   7) = (   0.1289402   0.0000000  -0.0840688  )
         8           H   tau(   8) = (  -0.1289700   0.0000000  -0.0840477  )
         9           H   tau(   9) = (  -0.2105947   0.0000000   0.1478893  )
        10           H   tau(  10) = (  -0.0001026   0.0836626   0.2688106  )
        11           H   tau(  11) = (  -0.0005388  -0.0834139   0.2691554  )

     number of k points=     1
                       cart. coord. in units 2pi/alat
        k(    1) = (   0.0000000   0.0000000   0.0000000), wk =   2.0000000

     Dense  grid:   163015 G-vectors     FFT dimensions: (  90,  90,  90)

     Estimated max dynamical RAM per process >      42.11 MB

     Estimated total dynamical RAM >     168.45 MB

     Initial potential from superposition of free atoms

     starting charge   25.99972, renormalised to   26.00000

     negative rho (up, down):  1.254E-03 0.000E+00
     Starting wfcs are   26 randomized atomic wfcs

     total cpu time spent up to now is        0.8 secs

     Self-consistent Calculation

     iteration #  1     ecut=    45.00 Ry     beta= 0.50
     Davidson diagonalization with overlap
     ethr =  1.00E-02,  avg # of iterations =  2.0

     negative rho (up, down):  5.743E-04 0.000E+00

     total cpu time spent up to now is        1.6 secs

     total energy              =     -66.88304387 Ry
     estimated scf accuracy    <       1.27084247 Ry

     iteration #  2     ecut=    45.00 Ry     beta= 0.50
     Davidson diagonalization with overlap
     ethr =  4.89E-03,  avg # of iterations =  2.0

     negative rho (up, down):  2.499E-04 0.000E+00

     total cpu time spent up to now is        2.4 secs

     total energy              =     -67.07908082 Ry
     estimated scf accuracy    <       0.09557816 Ry

     iteration #  3     ecut=    45.00 Ry     beta= 0.50
     Davidson diagonalization with overlap
     ethr =  3.68E-04,  avg # of iterations =  2.0

     negative rho (up, down):  2.028E-05 0.000E+00

     total cpu time spent up to now is        3.0 secs

     total energy              =     -67.07800006 Ry
     estimated scf accuracy    <       0.01748073 Ry

     iteration #  4     ecut=    45.00 Ry     beta= 0.50
     Davidson diagonalization with overlap
     ethr =  6.72E-05,  avg # of iterations =  2.0

     negative rho (up, down):  1.961E-06 0.000E+00

     total cpu time spent up to now is        3.8 secs

     total energy              =     -67.08043882 Ry
     estimated scf accuracy    <       0.00210902 Ry

     iteration #  5     ecut=    45.00 Ry     beta= 0.50
     Davidson diagonalization with overlap
     ethr =  8.11E-06,  avg # of iterations =  3.0

     negative rho (up, down):  3.230E-07 0.000E+00

     total cpu time spent up to now is        4.6 secs

     total energy              =     -67.08105675 Ry
     estimated scf accuracy    <       0.00128486 Ry

     iteration #  6     ecut=    45.00 Ry     beta= 0.50
     Davidson diagonalization with overlap
     ethr =  4.94E-06,  avg # of iterations =  2.0

     total cpu time spent up to now is        5.3 secs

     total energy              =     -67.08131864 Ry
     estimated scf accuracy    <       0.00000793 Ry

     iteration #  7     ecut=    45.00 Ry     beta= 0.50
     Davidson diagonalization with overlap
     ethr =  3.05E-08,  avg # of iterations =  6.0

     total cpu time spent up to now is        6.5 secs

     total energy              =     -67.08132918 Ry
     estimated scf accuracy    <       0.00002035 Ry

     iteration #  8     ecut=    45.00 Ry     beta= 0.50
     Davidson diagonalization with overlap
     ethr =  3.05E-08,  avg # of iterations =  2.0

     total cpu time spent up to now is        7.2 secs

     total energy              =     -67.08133155 Ry
     estimated scf accuracy    <       0.00000094 Ry

     iteration #  9     ecut=    45.00 Ry     beta= 0.50
     Davidson diagonalization with overlap
     ethr =  3.63E-09,  avg # of iterations =  3.0

     total cpu time spent up to now is        8.0 secs

     total energy              =     -67.08133185 Ry
     estimated scf accuracy    <       0.00000003 Ry

     iteration # 10     ecut=    45.00 Ry     beta= 0.50
     Davidson diagonalization with overlap
     ethr =  1.17E-10,  avg # of iterations =  5.0

     total cpu time spent up to now is        8.9 secs

     total energy              =     -67.08133186 Ry
     estimated scf accuracy    <          3.9E-09 Ry

     iteration # 11     ecut=    45.00 Ry     beta= 0.50
     Davidson diagonalization with overlap
     ethr =  1.51E-11,  avg # of iterations =  3.0

     total cpu time spent up to now is        9.7 secs

     total energy              =     -67.08133186 Ry
     estimated scf accuracy    <          3.9E-09 Ry

     iteration # 12     ecut=    45.00 Ry     beta= 0.50
     Davidson diagonalization with overlap
     ethr =  1.50E-11,  avg # of iterations =  2.0

     total cpu time spent up to now is       10.5 secs

     total energy              =     -67.08133186 Ry
     estimated scf accuracy    <          7.0E-11 Ry

     iteration # 13     ecut=    45.00 Ry     beta= 0.50
     Davidson diagonalization with overlap
     ethr =  2.70E-13,  avg # of iterations =  5.0

     total cpu time spent up to now is       11.4 secs

     total energy              =     -67.08133186 Ry
     estimated scf accuracy    <          1.8E-11 Ry

     iteration # 14     ecut=    45.00 Ry     beta= 0.50
     Davidson diagonalization with overlap
     ethr =  1.00E-13,  avg # of iterations =  3.0

     total cpu time spent up to now is       12.1 secs

     End of self-consistent calculation

          k = 0.0000 0.0000 0.0000 ( 20326 PWs)   bands (ev):

   -20.8691 -16.9586 -16.9175 -13.0435 -12.4253 -12.1287 -10.3282  -9.0497
    -8.5333  -8.1932  -8.1006  -6.9563  -4.9245

     highest occupied level (ev):    -4.9245

!    total energy              =     -67.08133186 Ry
     estimated scf accuracy    <          9.5E-13 Ry

     The total energy is the sum of the following terms:
     one-electron contribution =    -229.46658839 Ry
     hartree contribution      =     118.19154075 Ry
     xc contribution           =     -25.52986898 Ry
     ewald contribution        =      69.72358476 Ry

     convergence has been achieved in  14 iterations

     Forces acting on atoms (cartesian axes, Ry/au):

     atom    1 type  1   force =    -0.00351460    0.00002909   -0.03287593
     atom    2 type  1   force =     0.00343326   -0.00004939   -0.03323583
     atom    3 type  1   force =     0.01261311   -0.00052277    0.02886477
     atom    4 type  1   force =    -0.01628853    0.00017665    0.02622350
     atom    5 type  1   force =     0.00362371    0.00022470   -0.02533241
     atom    6 type  2   force =    -0.00636732    0.00002005    0.00405724
     atom    7 type  2   force =    -0.00439211    0.00005726    0.00095206
     atom    8 type  2   force =     0.00444719   -0.00000835    0.00091779
     atom    9 type  2   force =     0.00622447   -0.00000916    0.00392344
     atom   10 type  2   force =    -0.00021497    0.00864294    0.01336349
     atom   11 type  2   force =     0.00043579   -0.00856101    0.01314188

     Total force =     0.073902     Total SCF correction =     0.000001

     Writing output data file ./Cyclopentadiene.save/

     init_run     :      0.68s CPU      0.73s WALL (       1 calls)
     electrons    :     11.06s CPU     11.30s WALL (       1 calls)
     forces       :      0.43s CPU      0.44s WALL (       1 calls)

     Called by init_run:
     wfcinit      :      0.28s CPU      0.29s WALL (       1 calls)
     potinit      :      0.25s CPU      0.28s WALL (       1 calls)
     hinit0       :      0.10s CPU      0.11s WALL (       1 calls)

     Called by electrons:
     c_bands      :      6.84s CPU      6.90s WALL (      14 calls)
     sum_band     :      1.42s CPU      1.43s WALL (      14 calls)
     v_of_rho     :      2.34s CPU      2.52s WALL (      15 calls)
     mix_rho      :      0.53s CPU      0.54s WALL (      14 calls)

     Called by c_bands:
     init_us_2    :      0.08s CPU      0.09s WALL (      29 calls)
     regterg      :      6.73s CPU      6.78s WALL (      14 calls)

     Called by *egterg:
     rdiaghg      :      0.04s CPU      0.04s WALL (      56 calls)
     h_psi        :      6.18s CPU      6.24s WALL (      57 calls)
     g_psi        :      0.01s CPU      0.01s WALL (      42 calls)

     Called by h_psi:
     h_psi:calbec :      0.63s CPU      0.63s WALL (      57 calls)
     vloc_psi     :      5.03s CPU      5.09s WALL (      57 calls)
     add_vuspsi   :      0.49s CPU      0.49s WALL (      57 calls)

     General routines
     calbec       :      0.68s CPU      0.69s WALL (      61 calls)
     fft          :      1.66s CPU      1.71s WALL (     128 calls)
     ffts         :      0.19s CPU      0.19s WALL (      14 calls)
     fftw         :      4.79s CPU      4.84s WALL (     732 calls)

     Parallel routines

     PWSCF        :     12.26s CPU     12.58s WALL


   This run was terminated on:   4: 7:28  24May2021            

=------------------------------------------------------------------------------=
   JOB DONE.
=------------------------------------------------------------------------------=
