
     Program PWSCF v.6.7GPU starts on 24May2021 at  4: 9:40 

     This program is part of the open-source Quantum ESPRESSO suite
     for quantum simulation of materials; please cite
         "P. Giannozzi et al., J. Phys.:Condens. Matter 21 395502 (2009);
         "P. Giannozzi et al., J. Phys.:Condens. Matter 29 465901 (2017);
         "P. Giannozzi et al., J. Chem. Phys. 152 154105 (2020);
          URL http://www.quantum-espresso.org", 
     in publications or presentations arising from this work. More details at
     http://www.quantum-espresso.org/quote

     Parallel version (MPI), running on     4 processors

     MPI processes distributed on     1 nodes
     R & G space division:  proc/nbgrp/npool/nimage =       4
     Waiting for input...
     Reading input from standard input
     Message from routine read_cards :
     DEPRECATED: no units specified in CELL_PARAMETERS card

     Current dimensions of program PWSCF are:
     Max number of different atomic species (ntypx) = 10
     Max number of k-points (npk) =  40000
     Max angular momentum in pseudopotentials (lmaxx) =  3

     gamma-point specific algorithms are used

     Subspace diagonalization in iterative solution of the eigenvalue problem:
     one sub-group per band group will be used
     scalapack distributed-memory algorithm (size of sub-group:  2*  2 procs)


     Parallelization info
     --------------------
     sticks:   dense  smooth     PW     G-vecs:    dense   smooth      PW
     Min        2543    2543    637               193371   193371   24241
     Max        2548    2548    642               193374   193374   24244
     Sum       10185   10185   2561               773489   773489   96969

     Using Slab Decomposition



     bravais-lattice index     =            0
     lattice parameter (alat)  =      20.0000  a.u.
     unit-cell volume          =    8000.0000 (a.u.)^3
     number of atoms/cell      =           11
     number of atomic types    =            2
     number of electrons       =        26.00
     number of Kohn-Sham states=           13
     kinetic-energy cutoff     =      80.0000  Ry
     charge density cutoff     =     320.0000  Ry
     scf convergence threshold =      1.0E-12
     mixing beta               =       0.5000
     number of iterations used =            8  plain     mixing
     Exchange-correlation= PBE
                           (   1   4   3   4   0   0   0)

     celldm(1)=  20.000000  celldm(2)=   0.000000  celldm(3)=   0.000000
     celldm(4)=   0.000000  celldm(5)=   0.000000  celldm(6)=   0.000000

     crystal axes: (cart. coord. in units of alat)
               a(1) = (   1.000000   0.000000   0.000000 )  
               a(2) = (   0.000000   1.000000   0.000000 )  
               a(3) = (   0.000000   0.000000   1.000000 )  

     reciprocal axes: (cart. coord. in units 2 pi/alat)
               b(1) = (  1.000000  0.000000  0.000000 )  
               b(2) = (  0.000000  1.000000  0.000000 )  
               b(3) = (  0.000000  0.000000  1.000000 )  


     PseudoPot. # 1 for C  read from file:
     /home/ciga/builds/pseudo_potentials/C.upf
     MD5 check sum: d80ec9912146af6c4c1760317d1f95e9
     Pseudo is Norm-conserving + core correction, Zval =  4.0
     Generated using ONCVPSP code by D. R. Hamann
     Using radial grid of 1248 points,  4 beta functions with: 
                l(1) =   0
                l(2) =   0
                l(3) =   1
                l(4) =   1

     PseudoPot. # 2 for H  read from file:
     /home/ciga/builds/pseudo_potentials/H.upf
     MD5 check sum: 418cee52d0c413ae40802e6cc37ab9e3
     Pseudo is Norm-conserving, Zval =  1.0
     Generated using ONCVPSP code by D. R. Hamann
     Using radial grid of 1166 points,  3 beta functions with: 
                l(1) =   0
                l(2) =   0
                l(3) =   1

     atomic species   valence    mass     pseudopotential
        C              4.00    12.01070     C ( 1.00)
        H              1.00     1.00794     H ( 1.00)

     No symmetry found



   Cartesian axes

     site n.     atom                  positions (alat units)
         1           C   tau(   1) = (   0.0694474   0.0000000   0.0000000  )
         2           C   tau(   2) = (  -0.0694474   0.0000000   0.0000000  )
         3           C   tau(   3) = (   0.1115657   0.0000000   0.1196012  )
         4           C   tau(   4) = (  -0.1115657   0.0000000   0.1196012  )
         5           C   tau(   5) = (  -0.0002921   0.0000000   0.2087482  )
         6           H   tau(   6) = (   0.2105633   0.0000000   0.1479990  )
         7           H   tau(   7) = (   0.1289402   0.0000000  -0.0840688  )
         8           H   tau(   8) = (  -0.1289700   0.0000000  -0.0840477  )
         9           H   tau(   9) = (  -0.2105947   0.0000000   0.1478893  )
        10           H   tau(  10) = (  -0.0001026   0.0836626   0.2688106  )
        11           H   tau(  11) = (  -0.0005388  -0.0834139   0.2691554  )

     number of k points=     1
                       cart. coord. in units 2pi/alat
        k(    1) = (   0.0000000   0.0000000   0.0000000), wk =   2.0000000

     Dense  grid:   386745 G-vectors     FFT dimensions: ( 120, 120, 120)

     Estimated max dynamical RAM per process >      98.54 MB

     Estimated total dynamical RAM >     394.17 MB

     Initial potential from superposition of free atoms

     starting charge   25.99972, renormalised to   26.00000

     negative rho (up, down):  7.582E-05 0.000E+00
     Starting wfcs are   26 randomized atomic wfcs

     total cpu time spent up to now is        1.7 secs

     Self-consistent Calculation

     iteration #  1     ecut=    80.00 Ry     beta= 0.50
     Davidson diagonalization with overlap
     ethr =  1.00E-02,  avg # of iterations =  2.0

     negative rho (up, down):  2.228E-05 0.000E+00

     total cpu time spent up to now is        3.5 secs

     total energy              =     -66.99999059 Ry
     estimated scf accuracy    <       1.32511409 Ry

     iteration #  2     ecut=    80.00 Ry     beta= 0.50
     Davidson diagonalization with overlap
     ethr =  5.10E-03,  avg # of iterations =  2.0

     negative rho (up, down):  7.948E-06 0.000E+00

     total cpu time spent up to now is        5.2 secs

     total energy              =     -67.20881658 Ry
     estimated scf accuracy    <       0.09694410 Ry

     iteration #  3     ecut=    80.00 Ry     beta= 0.50
     Davidson diagonalization with overlap
     ethr =  3.73E-04,  avg # of iterations =  2.0

     negative rho (up, down):  6.327E-07 0.000E+00

     total cpu time spent up to now is        6.7 secs

     total energy              =     -67.20805837 Ry
     estimated scf accuracy    <       0.01792091 Ry

     iteration #  4     ecut=    80.00 Ry     beta= 0.50
     Davidson diagonalization with overlap
     ethr =  6.89E-05,  avg # of iterations =  2.0

     negative rho (up, down):  1.100E-07 0.000E+00

     total cpu time spent up to now is        8.4 secs

     total energy              =     -67.21065154 Ry
     estimated scf accuracy    <       0.00213961 Ry

     iteration #  5     ecut=    80.00 Ry     beta= 0.50
     Davidson diagonalization with overlap
     ethr =  8.23E-06,  avg # of iterations =  3.0

     negative rho (up, down):  4.835E-08 0.000E+00

     total cpu time spent up to now is       10.3 secs

     total energy              =     -67.21129276 Ry
     estimated scf accuracy    <       0.00138142 Ry

     iteration #  6     ecut=    80.00 Ry     beta= 0.50
     Davidson diagonalization with overlap
     ethr =  5.31E-06,  avg # of iterations =  2.0

     total cpu time spent up to now is       12.0 secs

     total energy              =     -67.21156642 Ry
     estimated scf accuracy    <       0.00000978 Ry

     iteration #  7     ecut=    80.00 Ry     beta= 0.50
     Davidson diagonalization with overlap
     ethr =  3.76E-08,  avg # of iterations =  6.0

     total cpu time spent up to now is       14.6 secs

     total energy              =     -67.21158048 Ry
     estimated scf accuracy    <       0.00002187 Ry

     iteration #  8     ecut=    80.00 Ry     beta= 0.50
     Davidson diagonalization with overlap
     ethr =  3.76E-08,  avg # of iterations =  2.0

     total cpu time spent up to now is       16.4 secs

     total energy              =     -67.21158310 Ry
     estimated scf accuracy    <       0.00000101 Ry

     iteration #  9     ecut=    80.00 Ry     beta= 0.50
     Davidson diagonalization with overlap
     ethr =  3.88E-09,  avg # of iterations =  3.0

     total cpu time spent up to now is       18.3 secs

     total energy              =     -67.21158339 Ry
     estimated scf accuracy    <       0.00000003 Ry

     iteration # 10     ecut=    80.00 Ry     beta= 0.50
     Davidson diagonalization with overlap
     ethr =  1.02E-10,  avg # of iterations =  5.0

     total cpu time spent up to now is       20.4 secs

     total energy              =     -67.21158340 Ry
     estimated scf accuracy    <          6.5E-09 Ry

     iteration # 11     ecut=    80.00 Ry     beta= 0.50
     Davidson diagonalization with overlap
     ethr =  2.49E-11,  avg # of iterations =  3.0

     total cpu time spent up to now is       22.2 secs

     total energy              =     -67.21158340 Ry
     estimated scf accuracy    <          6.3E-09 Ry

     iteration # 12     ecut=    80.00 Ry     beta= 0.50
     Davidson diagonalization with overlap
     ethr =  2.44E-11,  avg # of iterations =  2.0

     total cpu time spent up to now is       23.9 secs

     total energy              =     -67.21158340 Ry
     estimated scf accuracy    <          6.6E-11 Ry

     iteration # 13     ecut=    80.00 Ry     beta= 0.50
     Davidson diagonalization with overlap
     ethr =  2.53E-13,  avg # of iterations =  6.0

     total cpu time spent up to now is       26.1 secs

     total energy              =     -67.21158340 Ry
     estimated scf accuracy    <          8.4E-11 Ry

     iteration # 14     ecut=    80.00 Ry     beta= 0.50
     Davidson diagonalization with overlap
     ethr =  2.53E-13,  avg # of iterations =  3.0

     total cpu time spent up to now is       27.7 secs

     total energy              =     -67.21158340 Ry
     estimated scf accuracy    <          9.8E-12 Ry

     iteration # 15     ecut=    80.00 Ry     beta= 0.50
     Davidson diagonalization with overlap
     ethr =  1.00E-13,  avg # of iterations =  4.0

     total cpu time spent up to now is       29.5 secs

     total energy              =     -67.21158340 Ry
     estimated scf accuracy    <          3.4E-12 Ry

     iteration # 16     ecut=    80.00 Ry     beta= 0.50
     Davidson diagonalization with overlap
     ethr =  1.00E-13,  avg # of iterations =  1.0

     total cpu time spent up to now is       30.8 secs

     End of self-consistent calculation

          k = 0.0000 0.0000 0.0000 ( 48485 PWs)   bands (ev):

   -20.8037 -16.9024 -16.8668 -13.0153 -12.4004 -12.1244 -10.3292  -9.0595
    -8.5419  -8.1950  -8.1007  -6.9600  -4.9349

     highest occupied level (ev):    -4.9349

!    total energy              =     -67.21158340 Ry
     estimated scf accuracy    <          4.4E-13 Ry

     The total energy is the sum of the following terms:
     one-electron contribution =    -229.69281474 Ry
     hartree contribution      =     118.33573890 Ry
     xc contribution           =     -25.57809253 Ry
     ewald contribution        =      69.72358497 Ry

     convergence has been achieved in  16 iterations

     Forces acting on atoms (cartesian axes, Ry/au):

     atom    1 type  1   force =    -0.00926658    0.00002992   -0.02344627
     atom    2 type  1   force =     0.00918221   -0.00004850   -0.02379679
     atom    3 type  1   force =     0.00499682   -0.00052046    0.02283316
     atom    4 type  1   force =    -0.00833352    0.00017529    0.02048018
     atom    5 type  1   force =     0.00330065    0.00022674   -0.03212398
     atom    6 type  2   force =    -0.00620442    0.00001992    0.00389185
     atom    7 type  2   force =    -0.00411519    0.00005671    0.00090442
     atom    8 type  2   force =     0.00417092   -0.00000812    0.00087149
     atom    9 type  2   force =     0.00605304   -0.00000916    0.00375572
     atom   10 type  2   force =    -0.00021583    0.00854483    0.01342402
     atom   11 type  2   force =     0.00043190   -0.00846715    0.01320619

     Total force =     0.063281     Total SCF correction =     0.000001

     Writing output data file ./Cyclopentadiene.save/

     init_run     :      1.53s CPU      1.62s WALL (       1 calls)
     electrons    :     28.66s CPU     29.19s WALL (       1 calls)
     forces       :      0.94s CPU      0.97s WALL (       1 calls)

     Called by init_run:
     wfcinit      :      0.66s CPU      0.67s WALL (       1 calls)
     potinit      :      0.52s CPU      0.58s WALL (       1 calls)
     hinit0       :      0.21s CPU      0.22s WALL (       1 calls)

     Called by electrons:
     c_bands      :     17.36s CPU     17.45s WALL (      16 calls)
     sum_band     :      3.69s CPU      3.71s WALL (      16 calls)
     v_of_rho     :      6.00s CPU      6.42s WALL (      17 calls)
     mix_rho      :      1.76s CPU      1.79s WALL (      16 calls)

     Called by c_bands:
     init_us_2    :      0.23s CPU      0.24s WALL (      33 calls)
     regterg      :     17.06s CPU     17.16s WALL (      16 calls)

     Called by *egterg:
     rdiaghg      :      0.04s CPU      0.04s WALL (      64 calls)
     h_psi        :     15.21s CPU     15.30s WALL (      65 calls)
     g_psi        :      0.04s CPU      0.04s WALL (      48 calls)

     Called by h_psi:
     h_psi:calbec :      1.59s CPU      1.59s WALL (      65 calls)
     vloc_psi     :     12.23s CPU     12.31s WALL (      65 calls)
     add_vuspsi   :      1.31s CPU      1.31s WALL (      65 calls)

     General routines
     calbec       :      1.72s CPU      1.72s WALL (      69 calls)
     fft          :      4.23s CPU      4.33s WALL (     144 calls)
     ffts         :      0.45s CPU      0.45s WALL (      16 calls)
     fftw         :     11.43s CPU     11.49s WALL (     816 calls)

     Parallel routines

     PWSCF        :     31.20s CPU     31.88s WALL


   This run was terminated on:   4:10:12  24May2021            

=------------------------------------------------------------------------------=
   JOB DONE.
=------------------------------------------------------------------------------=
