
     Program PWSCF v.6.7GPU starts on 24May2021 at  5: 5:12 

     This program is part of the open-source Quantum ESPRESSO suite
     for quantum simulation of materials; please cite
         "P. Giannozzi et al., J. Phys.:Condens. Matter 21 395502 (2009);
         "P. Giannozzi et al., J. Phys.:Condens. Matter 29 465901 (2017);
         "P. Giannozzi et al., J. Chem. Phys. 152 154105 (2020);
          URL http://www.quantum-espresso.org", 
     in publications or presentations arising from this work. More details at
     http://www.quantum-espresso.org/quote

     Parallel version (MPI), running on     4 processors

     MPI processes distributed on     1 nodes
     R & G space division:  proc/nbgrp/npool/nimage =       4
     Waiting for input...
     Reading input from standard input
     Message from routine read_cards :
     DEPRECATED: no units specified in CELL_PARAMETERS card

     Current dimensions of program PWSCF are:
     Max number of different atomic species (ntypx) = 10
     Max number of k-points (npk) =  40000
     Max angular momentum in pseudopotentials (lmaxx) =  3

     gamma-point specific algorithms are used

     Subspace diagonalization in iterative solution of the eigenvalue problem:
     one sub-group per band group will be used
     scalapack distributed-memory algorithm (size of sub-group:  2*  2 procs)


     Parallelization info
     --------------------
     sticks:   dense  smooth     PW     G-vecs:    dense   smooth      PW
     Min        2069    2069    518               141623   141623   17686
     Max        2072    2072    520               141628   141628   17689
     Sum        8285    8285   2077               566507   566507   70751

     Using Slab Decomposition



     bravais-lattice index     =            0
     lattice parameter (alat)  =      20.0000  a.u.
     unit-cell volume          =    8000.0000 (a.u.)^3
     number of atoms/cell      =           16
     number of atomic types    =            2
     number of electrons       =        40.00
     number of Kohn-Sham states=           20
     kinetic-energy cutoff     =      65.0000  Ry
     charge density cutoff     =     260.0000  Ry
     scf convergence threshold =      1.0E-12
     mixing beta               =       0.5000
     number of iterations used =            8  plain     mixing
     Exchange-correlation= PBE
                           (   1   4   3   4   0   0   0)

     celldm(1)=  20.000000  celldm(2)=   0.000000  celldm(3)=   0.000000
     celldm(4)=   0.000000  celldm(5)=   0.000000  celldm(6)=   0.000000

     crystal axes: (cart. coord. in units of alat)
               a(1) = (   1.000000   0.000000   0.000000 )  
               a(2) = (   0.000000   1.000000   0.000000 )  
               a(3) = (   0.000000   0.000000   1.000000 )  

     reciprocal axes: (cart. coord. in units 2 pi/alat)
               b(1) = (  1.000000  0.000000  0.000000 )  
               b(2) = (  0.000000  1.000000  0.000000 )  
               b(3) = (  0.000000  0.000000  1.000000 )  


     PseudoPot. # 1 for C  read from file:
     /home/ciga/builds/pseudo_potentials/C.upf
     MD5 check sum: d80ec9912146af6c4c1760317d1f95e9
     Pseudo is Norm-conserving + core correction, Zval =  4.0
     Generated using ONCVPSP code by D. R. Hamann
     Using radial grid of 1248 points,  4 beta functions with: 
                l(1) =   0
                l(2) =   0
                l(3) =   1
                l(4) =   1

     PseudoPot. # 2 for H  read from file:
     /home/ciga/builds/pseudo_potentials/H.upf
     MD5 check sum: 418cee52d0c413ae40802e6cc37ab9e3
     Pseudo is Norm-conserving, Zval =  1.0
     Generated using ONCVPSP code by D. R. Hamann
     Using radial grid of 1166 points,  3 beta functions with: 
                l(1) =   0
                l(2) =   0
                l(3) =   1

     atomic species   valence    mass     pseudopotential
        C              4.00    12.01070     C ( 1.00)
        H              1.00     1.00794     H ( 1.00)

     No symmetry found



   Cartesian axes

     site n.     atom                  positions (alat units)
         1           C   tau(   1) = (  -0.0248216  -0.1574425   0.0362166  )
         2           C   tau(   2) = (   0.0976138  -0.1266967   0.0361599  )
         3           C   tau(   3) = (  -0.0972925   0.1266778   0.0363300  )
         4           C   tau(   4) = (   0.0248499   0.1574709   0.0362355  )
         5           C   tau(   5) = (  -0.1268384  -0.0970563  -0.0358670  )
         6           C   tau(   6) = (   0.1584535  -0.0248971  -0.0362544  )
         7           C   tau(   7) = (  -0.1591244   0.0247082  -0.0369536  )
         8           C   tau(   8) = (   0.1271313   0.0974343  -0.0361221  )
         9           H   tau(   9) = (  -0.0537627  -0.2408645   0.0912643  )
        10           H   tau(  10) = (   0.1626487  -0.1863270   0.0912360  )
        11           H   tau(  11) = (  -0.1623653   0.1862325   0.0916706  )
        12           H   tau(  12) = (   0.0539139   0.2407606   0.0916328  )
        13           H   tau(  13) = (  -0.1860246  -0.1632251  -0.0904706  )
        14           H   tau(  14) = (   0.2419133  -0.0536493  -0.0911793  )
        15           H   tau(  15) = (  -0.2427259   0.0530163  -0.0917462  )
        16           H   tau(  16) = (   0.1866199   0.1628566  -0.0908297  )

     number of k points=     1
                       cart. coord. in units 2pi/alat
        k(    1) = (   0.0000000   0.0000000   0.0000000), wk =   2.0000000

     Dense  grid:   283254 G-vectors     FFT dimensions: ( 108, 108, 108)

     Estimated max dynamical RAM per process >      81.55 MB

     Estimated total dynamical RAM >     326.20 MB

     Initial potential from superposition of free atoms

     starting charge   39.99957, renormalised to   40.00000

     negative rho (up, down):  1.095E-04 0.000E+00
     Starting wfcs are   40 randomized atomic wfcs

     total cpu time spent up to now is        1.8 secs

     Self-consistent Calculation

     iteration #  1     ecut=    65.00 Ry     beta= 0.50
     Davidson diagonalization with overlap
     ethr =  1.00E-02,  avg # of iterations =  2.0

     negative rho (up, down):  3.319E-05 0.000E+00

     total cpu time spent up to now is        4.1 secs

     total energy              =    -105.34087420 Ry
     estimated scf accuracy    <       1.78390717 Ry

     iteration #  2     ecut=    65.00 Ry     beta= 0.50
     Davidson diagonalization with overlap
     ethr =  4.46E-03,  avg # of iterations =  2.0

     negative rho (up, down):  1.103E-05 0.000E+00

     total cpu time spent up to now is        6.1 secs

     total energy              =    -105.56844262 Ry
     estimated scf accuracy    <       0.13966775 Ry

     iteration #  3     ecut=    65.00 Ry     beta= 0.50
     Davidson diagonalization with overlap
     ethr =  3.49E-04,  avg # of iterations =  2.0

     negative rho (up, down):  9.859E-07 0.000E+00

     total cpu time spent up to now is        7.8 secs

     total energy              =    -105.57414846 Ry
     estimated scf accuracy    <       0.02060355 Ry

     iteration #  4     ecut=    65.00 Ry     beta= 0.50
     Davidson diagonalization with overlap
     ethr =  5.15E-05,  avg # of iterations =  2.0

     negative rho (up, down):  1.304E-08 0.000E+00

     total cpu time spent up to now is        9.8 secs

     total energy              =    -105.57703448 Ry
     estimated scf accuracy    <       0.00132512 Ry

     iteration #  5     ecut=    65.00 Ry     beta= 0.50
     Davidson diagonalization with overlap
     ethr =  3.31E-06,  avg # of iterations =  3.0

     total cpu time spent up to now is       12.1 secs

     total energy              =    -105.57759676 Ry
     estimated scf accuracy    <       0.00046695 Ry

     iteration #  6     ecut=    65.00 Ry     beta= 0.50
     Davidson diagonalization with overlap
     ethr =  1.17E-06,  avg # of iterations =  3.0

     total cpu time spent up to now is       14.2 secs

     total energy              =    -105.57770694 Ry
     estimated scf accuracy    <       0.00001562 Ry

     iteration #  7     ecut=    65.00 Ry     beta= 0.50
     Davidson diagonalization with overlap
     ethr =  3.91E-08,  avg # of iterations =  5.0

     total cpu time spent up to now is       17.1 secs

     total energy              =    -105.57772149 Ry
     estimated scf accuracy    <       0.00000122 Ry

     iteration #  8     ecut=    65.00 Ry     beta= 0.50
     Davidson diagonalization with overlap
     ethr =  3.05E-09,  avg # of iterations =  4.0

     total cpu time spent up to now is       19.1 secs

     total energy              =    -105.57772164 Ry
     estimated scf accuracy    <       0.00000028 Ry

     iteration #  9     ecut=    65.00 Ry     beta= 0.50
     Davidson diagonalization with overlap
     ethr =  6.91E-10,  avg # of iterations =  2.0

     total cpu time spent up to now is       21.2 secs

     total energy              =    -105.57772168 Ry
     estimated scf accuracy    <       0.00000003 Ry

     iteration # 10     ecut=    65.00 Ry     beta= 0.50
     Davidson diagonalization with overlap
     ethr =  8.65E-11,  avg # of iterations =  3.0

     total cpu time spent up to now is       23.5 secs

     total energy              =    -105.57772169 Ry
     estimated scf accuracy    <          9.0E-09 Ry

     iteration # 11     ecut=    65.00 Ry     beta= 0.50
     Davidson diagonalization with overlap
     ethr =  2.24E-11,  avg # of iterations =  4.0

     total cpu time spent up to now is       25.6 secs

     total energy              =    -105.57772169 Ry
     estimated scf accuracy    <          1.2E-09 Ry

     iteration # 12     ecut=    65.00 Ry     beta= 0.50
     Davidson diagonalization with overlap
     ethr =  3.01E-12,  avg # of iterations =  5.0

     total cpu time spent up to now is       28.1 secs

     total energy              =    -105.57772169 Ry
     estimated scf accuracy    <          9.2E-10 Ry

     iteration # 13     ecut=    65.00 Ry     beta= 0.50
     Davidson diagonalization with overlap
     ethr =  2.30E-12,  avg # of iterations =  3.0

     total cpu time spent up to now is       30.0 secs

     total energy              =    -105.57772169 Ry
     estimated scf accuracy    <          6.1E-11 Ry

     iteration # 14     ecut=    65.00 Ry     beta= 0.50
     Davidson diagonalization with overlap
     ethr =  1.53E-13,  avg # of iterations =  6.0

     total cpu time spent up to now is       32.7 secs

     total energy              =    -105.57772169 Ry
     estimated scf accuracy    <          8.2E-11 Ry

     iteration # 15     ecut=    65.00 Ry     beta= 0.50
     Davidson diagonalization with overlap
     ethr =  1.53E-13,  avg # of iterations =  3.0

     total cpu time spent up to now is       34.5 secs

     total energy              =    -105.57772169 Ry
     estimated scf accuracy    <          8.1E-12 Ry

     iteration # 16     ecut=    65.00 Ry     beta= 0.50
     Davidson diagonalization with overlap
     ethr =  1.00E-13,  avg # of iterations =  4.0

     total cpu time spent up to now is       36.3 secs

     total energy              =    -105.57772169 Ry
     estimated scf accuracy    <          1.6E-12 Ry

     iteration # 17     ecut=    65.00 Ry     beta= 0.50
     Davidson diagonalization with overlap
     ethr =  1.00E-13,  avg # of iterations =  1.0

     total cpu time spent up to now is       37.8 secs

     End of self-consistent calculation

          k = 0.0000 0.0000 0.0000 ( 35376 PWs)   bands (ev):

   -20.0664 -18.6580 -18.6376 -16.5210 -15.5489 -13.2053 -13.1603 -11.7379
   -10.4178 -10.3976 -10.3121 -10.2702  -9.7128  -8.0526  -8.0096  -7.1993
    -6.8767  -5.9737  -5.9678  -4.5684

     highest occupied level (ev):    -4.5684

!    total energy              =    -105.57772169 Ry
     estimated scf accuracy    <          3.9E-13 Ry

     The total energy is the sum of the following terms:
     one-electron contribution =    -369.46463378 Ry
     hartree contribution      =     190.37880844 Ry
     xc contribution           =     -39.67024262 Ry
     ewald contribution        =     113.17834627 Ry

     convergence has been achieved in  17 iterations

     Forces acting on atoms (cartesian axes, Ry/au):

     atom    1 type  1   force =    -0.01976225   -0.00891498    0.00834947
     atom    2 type  1   force =     0.02334808    0.00238459    0.00528944
     atom    3 type  1   force =    -0.03625227   -0.00693213   -0.00015314
     atom    4 type  1   force =     0.02722090    0.01220404    0.00683588
     atom    5 type  1   force =    -0.00202504   -0.03132144   -0.01136450
     atom    6 type  1   force =     0.00781664   -0.02015368   -0.00523538
     atom    7 type  1   force =     0.00085783    0.03141409    0.00366640
     atom    8 type  1   force =    -0.00282958    0.02093354   -0.00655420
     atom    9 type  2   force =     0.00305143    0.00547524   -0.00506313
     atom   10 type  2   force =    -0.00502814    0.00289643   -0.00519628
     atom   11 type  2   force =     0.00601727   -0.00413879   -0.00546358
     atom   12 type  2   force =    -0.00377713   -0.00646141   -0.00540872
     atom   13 type  2   force =     0.00385001    0.00637675    0.00573661
     atom   14 type  2   force =    -0.00458182    0.00273889    0.00498969
     atom   15 type  2   force =     0.00513772   -0.00181356    0.00484556
     atom   16 type  2   force =    -0.00304365   -0.00468760    0.00472589

     Total force =     0.084019     Total SCF correction =     0.000001

     Writing output data file ./Cyclooctatetraene.save/

     init_run     :      1.66s CPU      1.72s WALL (       1 calls)
     electrons    :     35.57s CPU     36.06s WALL (       1 calls)
     forces       :      0.99s CPU      1.02s WALL (       1 calls)

     Called by init_run:
     wfcinit      :      0.95s CPU      0.96s WALL (       1 calls)
     potinit      :      0.44s CPU      0.47s WALL (       1 calls)
     hinit0       :      0.16s CPU      0.17s WALL (       1 calls)

     Called by electrons:
     c_bands      :     24.85s CPU     25.01s WALL (      17 calls)
     sum_band     :      4.17s CPU      4.21s WALL (      17 calls)
     v_of_rho     :      5.24s CPU      5.53s WALL (      18 calls)
     mix_rho      :      1.41s CPU      1.43s WALL (      17 calls)

     Called by c_bands:
     init_us_2    :      0.26s CPU      0.27s WALL (      35 calls)
     regterg      :     24.50s CPU     24.65s WALL (      17 calls)

     Called by *egterg:
     rdiaghg      :      0.08s CPU      0.08s WALL (      71 calls)
     h_psi        :     21.27s CPU     21.41s WALL (      72 calls)
     g_psi        :      0.04s CPU      0.05s WALL (      54 calls)

     Called by h_psi:
     h_psi:calbec :      2.83s CPU      2.84s WALL (      72 calls)
     vloc_psi     :     16.10s CPU     16.22s WALL (      72 calls)
     add_vuspsi   :      2.23s CPU      2.24s WALL (      72 calls)

     General routines
     calbec       :      3.05s CPU      3.06s WALL (      76 calls)
     fft          :      3.63s CPU      3.70s WALL (     152 calls)
     ffts         :      0.43s CPU      0.43s WALL (      17 calls)
     fftw         :     15.70s CPU     15.82s WALL (    1206 calls)

     Parallel routines

     PWSCF        :     38.30s CPU     38.92s WALL


   This run was terminated on:   5: 5:51  24May2021            

=------------------------------------------------------------------------------=
   JOB DONE.
=------------------------------------------------------------------------------=
