
     Program PWSCF v.6.7GPU starts on 24May2021 at  7:21:51 

     This program is part of the open-source Quantum ESPRESSO suite
     for quantum simulation of materials; please cite
         "P. Giannozzi et al., J. Phys.:Condens. Matter 21 395502 (2009);
         "P. Giannozzi et al., J. Phys.:Condens. Matter 29 465901 (2017);
         "P. Giannozzi et al., J. Chem. Phys. 152 154105 (2020);
          URL http://www.quantum-espresso.org", 
     in publications or presentations arising from this work. More details at
     http://www.quantum-espresso.org/quote

     Parallel version (MPI), running on     4 processors

     MPI processes distributed on     1 nodes
     R & G space division:  proc/nbgrp/npool/nimage =       4
     Waiting for input...
     Reading input from standard input
     Message from routine read_cards :
     DEPRECATED: no units specified in CELL_PARAMETERS card

     Current dimensions of program PWSCF are:
     Max number of different atomic species (ntypx) = 10
     Max number of k-points (npk) =  40000
     Max angular momentum in pseudopotentials (lmaxx) =  3

     gamma-point specific algorithms are used

     Subspace diagonalization in iterative solution of the eigenvalue problem:
     one sub-group per band group will be used
     scalapack distributed-memory algorithm (size of sub-group:  2*  2 procs)


     Parallelization info
     --------------------
     sticks:   dense  smooth     PW     G-vecs:    dense   smooth      PW
     Min        1591    1591    398                95580    95580   11954
     Max        1594    1594    400                95582    95582   11960
     Sum        6369    6369   1597               382323   382323   47833

     Using Slab Decomposition



     bravais-lattice index     =            0
     lattice parameter (alat)  =      20.0000  a.u.
     unit-cell volume          =    8000.0000 (a.u.)^3
     number of atoms/cell      =            9
     number of atomic types    =            2
     number of electrons       =        18.00
     number of Kohn-Sham states=            9
     kinetic-energy cutoff     =      50.0000  Ry
     charge density cutoff     =     200.0000  Ry
     scf convergence threshold =      1.0E-12
     mixing beta               =       0.5000
     number of iterations used =            8  plain     mixing
     Exchange-correlation= PBE
                           (   1   4   3   4   0   0   0)

     celldm(1)=  20.000000  celldm(2)=   0.000000  celldm(3)=   0.000000
     celldm(4)=   0.000000  celldm(5)=   0.000000  celldm(6)=   0.000000

     crystal axes: (cart. coord. in units of alat)
               a(1) = (   1.000000   0.000000   0.000000 )  
               a(2) = (   0.000000   1.000000   0.000000 )  
               a(3) = (   0.000000   0.000000   1.000000 )  

     reciprocal axes: (cart. coord. in units 2 pi/alat)
               b(1) = (  1.000000  0.000000  0.000000 )  
               b(2) = (  0.000000  1.000000  0.000000 )  
               b(3) = (  0.000000  0.000000  1.000000 )  


     PseudoPot. # 1 for C  read from file:
     /home/ciga/builds/pseudo_potentials/C.upf
     MD5 check sum: d80ec9912146af6c4c1760317d1f95e9
     Pseudo is Norm-conserving + core correction, Zval =  4.0
     Generated using ONCVPSP code by D. R. Hamann
     Using radial grid of 1248 points,  4 beta functions with: 
                l(1) =   0
                l(2) =   0
                l(3) =   1
                l(4) =   1

     PseudoPot. # 2 for H  read from file:
     /home/ciga/builds/pseudo_potentials/H.upf
     MD5 check sum: 418cee52d0c413ae40802e6cc37ab9e3
     Pseudo is Norm-conserving, Zval =  1.0
     Generated using ONCVPSP code by D. R. Hamann
     Using radial grid of 1166 points,  3 beta functions with: 
                l(1) =   0
                l(2) =   0
                l(3) =   1

     atomic species   valence    mass     pseudopotential
        C              4.00    12.01070     C ( 1.00)
        H              1.00     1.00794     H ( 1.00)

     No symmetry found



   Cartesian axes

     site n.     atom                  positions (alat units)
         1           C   tau(   1) = (   0.0034462   0.0812489  -0.0172208  )
         2           C   tau(   2) = (  -0.0260474  -0.0533169  -0.0567132  )
         3           C   tau(   3) = (   0.0253626  -0.0268239   0.0743467  )
         4           H   tau(   4) = (  -0.0389670  -0.0359377   0.1534024  )
         5           H   tau(   5) = (   0.1214930  -0.0548224   0.0954693  )
         6           H   tau(   6) = (  -0.0752871   0.1439474   0.0012484  )
         7           H   tau(   7) = (   0.0847337   0.1275970  -0.0586375  )
         8           H   tau(   8) = (  -0.1258005  -0.0759317  -0.0597241  )
         9           H   tau(   9) = (   0.0298219  -0.1020343  -0.1272568  )

     number of k points=     1
                       cart. coord. in units 2pi/alat
        k(    1) = (   0.0000000   0.0000000   0.0000000), wk =   2.0000000

     Dense  grid:   191162 G-vectors     FFT dimensions: (  96,  96,  96)

     Estimated max dynamical RAM per process >      46.19 MB

     Estimated total dynamical RAM >     184.77 MB

     Initial potential from superposition of free atoms

     starting charge   17.99981, renormalised to   18.00000

     negative rho (up, down):  8.242E-04 0.000E+00
     Starting wfcs are   18 randomized atomic wfcs

     total cpu time spent up to now is        0.8 secs

     Self-consistent Calculation

     iteration #  1     ecut=    50.00 Ry     beta= 0.50
     Davidson diagonalization with overlap
     ethr =  1.00E-02,  avg # of iterations =  2.0

     negative rho (up, down):  3.759E-04 0.000E+00

     total cpu time spent up to now is        1.4 secs

     total energy              =     -42.95273537 Ry
     estimated scf accuracy    <       1.05297049 Ry

     iteration #  2     ecut=    50.00 Ry     beta= 0.50
     Davidson diagonalization with overlap
     ethr =  5.85E-03,  avg # of iterations =  2.0

     negative rho (up, down):  1.749E-04 0.000E+00

     total cpu time spent up to now is        2.1 secs

     total energy              =     -43.13123403 Ry
     estimated scf accuracy    <       0.07773617 Ry

     iteration #  3     ecut=    50.00 Ry     beta= 0.50
     Davidson diagonalization with overlap
     ethr =  4.32E-04,  avg # of iterations =  1.0

     negative rho (up, down):  1.118E-05 0.000E+00

     total cpu time spent up to now is        2.6 secs

     total energy              =     -43.12684693 Ry
     estimated scf accuracy    <       0.01684694 Ry

     iteration #  4     ecut=    50.00 Ry     beta= 0.50
     Davidson diagonalization with overlap
     ethr =  9.36E-05,  avg # of iterations =  2.0

     negative rho (up, down):  5.577E-06 0.000E+00

     total cpu time spent up to now is        3.3 secs

     total energy              =     -43.12879495 Ry
     estimated scf accuracy    <       0.00295669 Ry

     iteration #  5     ecut=    50.00 Ry     beta= 0.50
     Davidson diagonalization with overlap
     ethr =  1.64E-05,  avg # of iterations =  3.0

     negative rho (up, down):  5.466E-07 0.000E+00

     total cpu time spent up to now is        4.0 secs

     total energy              =     -43.12932558 Ry
     estimated scf accuracy    <       0.00286941 Ry

     iteration #  6     ecut=    50.00 Ry     beta= 0.50
     Davidson diagonalization with overlap
     ethr =  1.59E-05,  avg # of iterations =  2.0

     total cpu time spent up to now is        4.6 secs

     total energy              =     -43.12999941 Ry
     estimated scf accuracy    <       0.00002771 Ry

     iteration #  7     ecut=    50.00 Ry     beta= 0.50
     Davidson diagonalization with overlap
     ethr =  1.54E-07,  avg # of iterations =  2.0

     total cpu time spent up to now is        5.3 secs

     total energy              =     -43.13000339 Ry
     estimated scf accuracy    <       0.00000963 Ry

     iteration #  8     ecut=    50.00 Ry     beta= 0.50
     Davidson diagonalization with overlap
     ethr =  5.35E-08,  avg # of iterations =  2.0

     total cpu time spent up to now is        5.9 secs

     total energy              =     -43.13000495 Ry
     estimated scf accuracy    <       0.00000052 Ry

     iteration #  9     ecut=    50.00 Ry     beta= 0.50
     Davidson diagonalization with overlap
     ethr =  2.88E-09,  avg # of iterations =  2.0

     total cpu time spent up to now is        6.6 secs

     total energy              =     -43.13000503 Ry
     estimated scf accuracy    <       0.00000055 Ry

     iteration # 10     ecut=    50.00 Ry     beta= 0.50
     Davidson diagonalization with overlap
     ethr =  2.88E-09,  avg # of iterations =  1.0

     total cpu time spent up to now is        7.2 secs

     total energy              =     -43.13000485 Ry
     estimated scf accuracy    <       0.00000031 Ry

     iteration # 11     ecut=    50.00 Ry     beta= 0.50
     Davidson diagonalization with overlap
     ethr =  1.70E-09,  avg # of iterations =  2.0

     total cpu time spent up to now is        7.8 secs

     total energy              =     -43.13000495 Ry
     estimated scf accuracy    <       0.00000002 Ry

     iteration # 12     ecut=    50.00 Ry     beta= 0.50
     Davidson diagonalization with overlap
     ethr =  8.95E-11,  avg # of iterations =  2.0

     total cpu time spent up to now is        8.4 secs

     total energy              =     -43.13000494 Ry
     estimated scf accuracy    <          9.6E-09 Ry

     iteration # 13     ecut=    50.00 Ry     beta= 0.50
     Davidson diagonalization with overlap
     ethr =  5.36E-11,  avg # of iterations =  2.0

     total cpu time spent up to now is        9.1 secs

     total energy              =     -43.13000494 Ry
     estimated scf accuracy    <          1.8E-09 Ry

     iteration # 14     ecut=    50.00 Ry     beta= 0.50
     Davidson diagonalization with overlap
     ethr =  9.80E-12,  avg # of iterations =  2.0

     total cpu time spent up to now is        9.7 secs

     total energy              =     -43.13000494 Ry
     estimated scf accuracy    <          2.9E-10 Ry

     iteration # 15     ecut=    50.00 Ry     beta= 0.50
     Davidson diagonalization with overlap
     ethr =  1.60E-12,  avg # of iterations =  2.0

     total cpu time spent up to now is       10.3 secs

     total energy              =     -43.13000494 Ry
     estimated scf accuracy    <          6.7E-11 Ry

     iteration # 16     ecut=    50.00 Ry     beta= 0.50
     Davidson diagonalization with overlap
     ethr =  3.74E-13,  avg # of iterations =  2.0

     total cpu time spent up to now is       11.0 secs

     total energy              =     -43.13000494 Ry
     estimated scf accuracy    <          2.4E-12 Ry

     iteration # 17     ecut=    50.00 Ry     beta= 0.50
     Davidson diagonalization with overlap
     ethr =  1.00E-13,  avg # of iterations =  2.0

     total cpu time spent up to now is       11.6 secs

     total energy              =     -43.13000494 Ry
     estimated scf accuracy    <          1.2E-12 Ry

     iteration # 18     ecut=    50.00 Ry     beta= 0.50
     Davidson diagonalization with overlap
     ethr =  1.00E-13,  avg # of iterations =  1.0

     total cpu time spent up to now is       12.1 secs

     End of self-consistent calculation

          k = 0.0000 0.0000 0.0000 ( 23917 PWs)   bands (ev):

   -20.7640 -14.3191 -14.3106 -11.7244 -11.0778  -8.3646  -8.3535  -6.7360
    -6.7327

     highest occupied level (ev):    -6.7327

!    total energy              =     -43.13000494 Ry
     estimated scf accuracy    <          5.7E-15 Ry

     The total energy is the sum of the following terms:
     one-electron contribution =    -138.23133099 Ry
     hartree contribution      =      71.37787997 Ry
     xc contribution           =     -17.13248491 Ry
     ewald contribution        =      40.85593099 Ry

     convergence has been achieved in  18 iterations

     Forces acting on atoms (cartesian axes, Ry/au):

     atom    1 type  1   force =     0.00532770   -0.01966274    0.00243113
     atom    2 type  1   force =    -0.01157266    0.01507428    0.01977809
     atom    3 type  1   force =    -0.00086806    0.00530738   -0.01891431
     atom    4 type  2   force =    -0.00469487   -0.00131211    0.00462135
     atom    5 type  2   force =     0.00756545    0.00050396   -0.00057331
     atom    6 type  2   force =    -0.00588620    0.00326694    0.00030204
     atom    7 type  2   force =     0.00714805    0.00114724   -0.00166471
     atom    8 type  2   force =    -0.00701305   -0.00584968   -0.00500545
     atom    9 type  2   force =     0.00999364    0.00152474   -0.00097483

     Total force =     0.044442     Total SCF correction =     0.000000

     Writing output data file ./Cyclopropane.save/

     init_run     :      0.65s CPU      0.70s WALL (       1 calls)
     electrons    :     10.97s CPU     11.34s WALL (       1 calls)
     forces       :      0.44s CPU      0.45s WALL (       1 calls)

     Called by init_run:
     wfcinit      :      0.20s CPU      0.20s WALL (       1 calls)
     potinit      :      0.29s CPU      0.32s WALL (       1 calls)
     hinit0       :      0.12s CPU      0.13s WALL (       1 calls)

     Called by electrons:
     c_bands      :      5.09s CPU      5.14s WALL (      18 calls)
     sum_band     :      1.63s CPU      1.65s WALL (      18 calls)
     v_of_rho     :      3.39s CPU      3.70s WALL (      19 calls)
     mix_rho      :      0.91s CPU      0.92s WALL (      18 calls)

     Called by c_bands:
     init_us_2    :      0.11s CPU      0.11s WALL (      37 calls)
     regterg      :      4.97s CPU      5.01s WALL (      18 calls)

     Called by *egterg:
     rdiaghg      :      0.03s CPU      0.03s WALL (      52 calls)
     h_psi        :      4.66s CPU      4.70s WALL (      53 calls)
     g_psi        :      0.01s CPU      0.01s WALL (      34 calls)

     Called by h_psi:
     h_psi:calbec :      0.43s CPU      0.43s WALL (      53 calls)
     vloc_psi     :      3.87s CPU      3.91s WALL (      53 calls)
     add_vuspsi   :      0.34s CPU      0.34s WALL (      53 calls)

     General routines
     calbec       :      0.46s CPU      0.46s WALL (      57 calls)
     fft          :      2.35s CPU      2.43s WALL (     160 calls)
     ffts         :      0.26s CPU      0.26s WALL (      18 calls)
     fftw         :      3.60s CPU      3.63s WALL (     580 calls)

     Parallel routines

     PWSCF        :     12.14s CPU     12.59s WALL


   This run was terminated on:   7:22: 4  24May2021            

=------------------------------------------------------------------------------=
   JOB DONE.
=------------------------------------------------------------------------------=
