
     Program PWSCF v.6.7GPU starts on 24May2021 at  4: 6:52 

     This program is part of the open-source Quantum ESPRESSO suite
     for quantum simulation of materials; please cite
         "P. Giannozzi et al., J. Phys.:Condens. Matter 21 395502 (2009);
         "P. Giannozzi et al., J. Phys.:Condens. Matter 29 465901 (2017);
         "P. Giannozzi et al., J. Chem. Phys. 152 154105 (2020);
          URL http://www.quantum-espresso.org", 
     in publications or presentations arising from this work. More details at
     http://www.quantum-espresso.org/quote

     Parallel version (MPI), running on     4 processors

     MPI processes distributed on     1 nodes
     R & G space division:  proc/nbgrp/npool/nimage =       4
     Waiting for input...
     Reading input from standard input
     Message from routine read_cards :
     DEPRECATED: no units specified in CELL_PARAMETERS card

     Current dimensions of program PWSCF are:
     Max number of different atomic species (ntypx) = 10
     Max number of k-points (npk) =  40000
     Max angular momentum in pseudopotentials (lmaxx) =  3

     gamma-point specific algorithms are used

     Subspace diagonalization in iterative solution of the eigenvalue problem:
     one sub-group per band group will be used
     scalapack distributed-memory algorithm (size of sub-group:  2*  2 procs)


     Parallelization info
     --------------------
     sticks:   dense  smooth     PW     G-vecs:    dense   smooth      PW
     Min         951     951    236                44375    44375    5524
     Max         954     954    238                44382    44382    5534
     Sum        3809    3809    949               177509   177509   22119

     Using Slab Decomposition



     bravais-lattice index     =            0
     lattice parameter (alat)  =      20.0000  a.u.
     unit-cell volume          =    8000.0000 (a.u.)^3
     number of atoms/cell      =           11
     number of atomic types    =            2
     number of electrons       =        26.00
     number of Kohn-Sham states=           13
     kinetic-energy cutoff     =      30.0000  Ry
     charge density cutoff     =     120.0000  Ry
     scf convergence threshold =      1.0E-12
     mixing beta               =       0.5000
     number of iterations used =            8  plain     mixing
     Exchange-correlation= PBE
                           (   1   4   3   4   0   0   0)

     celldm(1)=  20.000000  celldm(2)=   0.000000  celldm(3)=   0.000000
     celldm(4)=   0.000000  celldm(5)=   0.000000  celldm(6)=   0.000000

     crystal axes: (cart. coord. in units of alat)
               a(1) = (   1.000000   0.000000   0.000000 )  
               a(2) = (   0.000000   1.000000   0.000000 )  
               a(3) = (   0.000000   0.000000   1.000000 )  

     reciprocal axes: (cart. coord. in units 2 pi/alat)
               b(1) = (  1.000000  0.000000  0.000000 )  
               b(2) = (  0.000000  1.000000  0.000000 )  
               b(3) = (  0.000000  0.000000  1.000000 )  


     PseudoPot. # 1 for C  read from file:
     /home/ciga/builds/pseudo_potentials/C.upf
     MD5 check sum: d80ec9912146af6c4c1760317d1f95e9
     Pseudo is Norm-conserving + core correction, Zval =  4.0
     Generated using ONCVPSP code by D. R. Hamann
     Using radial grid of 1248 points,  4 beta functions with: 
                l(1) =   0
                l(2) =   0
                l(3) =   1
                l(4) =   1

     PseudoPot. # 2 for H  read from file:
     /home/ciga/builds/pseudo_potentials/H.upf
     MD5 check sum: 418cee52d0c413ae40802e6cc37ab9e3
     Pseudo is Norm-conserving, Zval =  1.0
     Generated using ONCVPSP code by D. R. Hamann
     Using radial grid of 1166 points,  3 beta functions with: 
                l(1) =   0
                l(2) =   0
                l(3) =   1

     atomic species   valence    mass     pseudopotential
        C              4.00    12.01070     C ( 1.00)
        H              1.00     1.00794     H ( 1.00)

     No symmetry found



   Cartesian axes

     site n.     atom                  positions (alat units)
         1           C   tau(   1) = (   0.0694474   0.0000000   0.0000000  )
         2           C   tau(   2) = (  -0.0694474   0.0000000   0.0000000  )
         3           C   tau(   3) = (   0.1115657   0.0000000   0.1196012  )
         4           C   tau(   4) = (  -0.1115657   0.0000000   0.1196012  )
         5           C   tau(   5) = (  -0.0002921   0.0000000   0.2087482  )
         6           H   tau(   6) = (   0.2105633   0.0000000   0.1479990  )
         7           H   tau(   7) = (   0.1289402   0.0000000  -0.0840688  )
         8           H   tau(   8) = (  -0.1289700   0.0000000  -0.0840477  )
         9           H   tau(   9) = (  -0.2105947   0.0000000   0.1478893  )
        10           H   tau(  10) = (  -0.0001026   0.0836626   0.2688106  )
        11           H   tau(  11) = (  -0.0005388  -0.0834139   0.2691554  )

     number of k points=     1
                       cart. coord. in units 2pi/alat
        k(    1) = (   0.0000000   0.0000000   0.0000000), wk =   2.0000000

     Dense  grid:    88755 G-vectors     FFT dimensions: (  72,  72,  72)

     Estimated max dynamical RAM per process >      22.54 MB

     Estimated total dynamical RAM >      90.18 MB

     Initial potential from superposition of free atoms

     starting charge   25.99972, renormalised to   26.00000

     negative rho (up, down):  9.361E-03 0.000E+00
     Starting wfcs are   26 randomized atomic wfcs

     total cpu time spent up to now is        0.4 secs

     Self-consistent Calculation

     iteration #  1     ecut=    30.00 Ry     beta= 0.50
     Davidson diagonalization with overlap
     ethr =  1.00E-02,  avg # of iterations =  2.0

     negative rho (up, down):  4.468E-03 0.000E+00

     total cpu time spent up to now is        0.8 secs

     total energy              =     -66.41175845 Ry
     estimated scf accuracy    <       1.07624069 Ry

     iteration #  2     ecut=    30.00 Ry     beta= 0.50
     Davidson diagonalization with overlap
     ethr =  4.14E-03,  avg # of iterations =  2.0

     negative rho (up, down):  1.921E-03 0.000E+00

     total cpu time spent up to now is        1.1 secs

     total energy              =     -66.55822574 Ry
     estimated scf accuracy    <       0.09108197 Ry

     iteration #  3     ecut=    30.00 Ry     beta= 0.50
     Davidson diagonalization with overlap
     ethr =  3.50E-04,  avg # of iterations =  2.0

     negative rho (up, down):  1.496E-04 0.000E+00

     total cpu time spent up to now is        1.3 secs

     total energy              =     -66.55755465 Ry
     estimated scf accuracy    <       0.01574944 Ry

     iteration #  4     ecut=    30.00 Ry     beta= 0.50
     Davidson diagonalization with overlap
     ethr =  6.06E-05,  avg # of iterations =  2.0

     negative rho (up, down):  1.739E-05 0.000E+00

     total cpu time spent up to now is        1.6 secs

     total energy              =     -66.55949556 Ry
     estimated scf accuracy    <       0.00170025 Ry

     iteration #  5     ecut=    30.00 Ry     beta= 0.50
     Davidson diagonalization with overlap
     ethr =  6.54E-06,  avg # of iterations =  3.0

     negative rho (up, down):  2.512E-06 0.000E+00

     total cpu time spent up to now is        2.0 secs

     total energy              =     -66.56000095 Ry
     estimated scf accuracy    <       0.00089608 Ry

     iteration #  6     ecut=    30.00 Ry     beta= 0.50
     Davidson diagonalization with overlap
     ethr =  3.45E-06,  avg # of iterations =  2.0

     total cpu time spent up to now is        2.3 secs

     total energy              =     -66.56017177 Ry
     estimated scf accuracy    <       0.00000924 Ry

     iteration #  7     ecut=    30.00 Ry     beta= 0.50
     Davidson diagonalization with overlap
     ethr =  3.55E-08,  avg # of iterations =  6.0

     total cpu time spent up to now is        2.7 secs

     total energy              =     -66.56018434 Ry
     estimated scf accuracy    <       0.00002271 Ry

     iteration #  8     ecut=    30.00 Ry     beta= 0.50
     Davidson diagonalization with overlap
     ethr =  3.55E-08,  avg # of iterations =  2.0

     total cpu time spent up to now is        3.0 secs

     total energy              =     -66.56017853 Ry
     estimated scf accuracy    <       0.00001150 Ry

     iteration #  9     ecut=    30.00 Ry     beta= 0.50
     Davidson diagonalization with overlap
     ethr =  3.55E-08,  avg # of iterations =  2.0

     total cpu time spent up to now is        3.3 secs

     total energy              =     -66.56018159 Ry
     estimated scf accuracy    <       0.00000018 Ry

     iteration # 10     ecut=    30.00 Ry     beta= 0.50
     Davidson diagonalization with overlap
     ethr =  6.75E-10,  avg # of iterations =  5.0

     total cpu time spent up to now is        3.7 secs

     total energy              =     -66.56018168 Ry
     estimated scf accuracy    <       0.00000008 Ry

     iteration # 11     ecut=    30.00 Ry     beta= 0.50
     Davidson diagonalization with overlap
     ethr =  3.05E-10,  avg # of iterations =  2.0

     total cpu time spent up to now is        4.0 secs

     total energy              =     -66.56018169 Ry
     estimated scf accuracy    <          3.3E-09 Ry

     iteration # 12     ecut=    30.00 Ry     beta= 0.50
     Davidson diagonalization with overlap
     ethr =  1.28E-11,  avg # of iterations =  5.0

     total cpu time spent up to now is        4.4 secs

     total energy              =     -66.56018169 Ry
     estimated scf accuracy    <          7.0E-09 Ry

     iteration # 13     ecut=    30.00 Ry     beta= 0.50
     Davidson diagonalization with overlap
     ethr =  1.28E-11,  avg # of iterations =  2.0

     total cpu time spent up to now is        4.7 secs

     total energy              =     -66.56018169 Ry
     estimated scf accuracy    <          3.4E-10 Ry

     iteration # 14     ecut=    30.00 Ry     beta= 0.50
     Davidson diagonalization with overlap
     ethr =  1.30E-12,  avg # of iterations =  5.0

     total cpu time spent up to now is        5.1 secs

     total energy              =     -66.56018169 Ry
     estimated scf accuracy    <          7.3E-11 Ry

     iteration # 15     ecut=    30.00 Ry     beta= 0.50
     Davidson diagonalization with overlap
     ethr =  2.83E-13,  avg # of iterations =  2.0

     total cpu time spent up to now is        5.3 secs

     total energy              =     -66.56018169 Ry
     estimated scf accuracy    <          1.2E-11 Ry

     iteration # 16     ecut=    30.00 Ry     beta= 0.50
     Davidson diagonalization with overlap
     ethr =  1.00E-13,  avg # of iterations =  5.0

     total cpu time spent up to now is        5.7 secs

     total energy              =     -66.56018169 Ry
     estimated scf accuracy    <          1.0E-11 Ry

     iteration # 17     ecut=    30.00 Ry     beta= 0.50
     Davidson diagonalization with overlap
     ethr =  1.00E-13,  avg # of iterations =  1.0

     total cpu time spent up to now is        6.0 secs

     total energy              =     -66.56018169 Ry
     estimated scf accuracy    <          3.9E-12 Ry

     iteration # 18     ecut=    30.00 Ry     beta= 0.50
     Davidson diagonalization with overlap
     ethr =  1.00E-13,  avg # of iterations =  2.0

     total cpu time spent up to now is        6.2 secs

     End of self-consistent calculation

          k = 0.0000 0.0000 0.0000 ( 11060 PWs)   bands (ev):

   -21.0683 -17.1200 -17.0731 -13.1329 -12.5074 -12.1527 -10.3514  -9.0502
    -8.5013  -8.1420  -8.0730  -6.9510  -4.8928

     highest occupied level (ev):    -4.8928

!    total energy              =     -66.56018169 Ry
     estimated scf accuracy    <          6.7E-14 Ry

     The total energy is the sum of the following terms:
     one-electron contribution =    -228.51475937 Ry
     hartree contribution      =     117.60593068 Ry
     xc contribution           =     -25.37493801 Ry
     ewald contribution        =      69.72358501 Ry

     convergence has been achieved in  18 iterations

     Forces acting on atoms (cartesian axes, Ry/au):

     atom    1 type  1   force =    -0.02916248    0.00002822   -0.02605417
     atom    2 type  1   force =     0.02906238   -0.00005085   -0.02641707
     atom    3 type  1   force =    -0.00630167   -0.00052371    0.03664105
     atom    4 type  1   force =     0.00349018    0.00017897    0.03467321
     atom    5 type  1   force =     0.00278376    0.00017702   -0.05693967
     atom    6 type  2   force =     0.01441107    0.00002079    0.00914547
     atom    7 type  2   force =     0.00846318    0.00005899   -0.01620323
     atom    8 type  2   force =    -0.00841311   -0.00000931   -0.01622825
     atom    9 type  2   force =    -0.01454028   -0.00000957    0.00899368
     atom   10 type  2   force =    -0.00017426    0.02527729    0.02626983
     atom   11 type  2   force =     0.00038124   -0.02514784    0.02611916

     Total force =     0.113201     Total SCF correction =     0.000000

     Writing output data file ./Cyclopentadiene.save/

     init_run     :      0.33s CPU      0.36s WALL (       1 calls)
     electrons    :      5.62s CPU      5.77s WALL (       1 calls)
     forces       :      0.23s CPU      0.23s WALL (       1 calls)

     Called by init_run:
     wfcinit      :      0.11s CPU      0.12s WALL (       1 calls)
     potinit      :      0.13s CPU      0.15s WALL (       1 calls)
     hinit0       :      0.07s CPU      0.07s WALL (       1 calls)

     Called by electrons:
     c_bands      :      3.24s CPU      3.28s WALL (      18 calls)
     sum_band     :      0.69s CPU      0.70s WALL (      18 calls)
     v_of_rho     :      1.43s CPU      1.52s WALL (      19 calls)
     mix_rho      :      0.29s CPU      0.30s WALL (      18 calls)

     Called by c_bands:
     init_us_2    :      0.06s CPU      0.06s WALL (      37 calls)
     regterg      :      3.16s CPU      3.19s WALL (      18 calls)

     Called by *egterg:
     rdiaghg      :      0.04s CPU      0.04s WALL (      70 calls)
     h_psi        :      2.77s CPU      2.81s WALL (      71 calls)
     g_psi        :      0.01s CPU      0.01s WALL (      52 calls)

     Called by h_psi:
     h_psi:calbec :      0.41s CPU      0.41s WALL (      71 calls)
     vloc_psi     :      2.05s CPU      2.08s WALL (      71 calls)
     add_vuspsi   :      0.31s CPU      0.31s WALL (      71 calls)

     General routines
     calbec       :      0.43s CPU      0.44s WALL (      75 calls)
     fft          :      0.78s CPU      0.80s WALL (     160 calls)
     ffts         :      0.09s CPU      0.10s WALL (      18 calls)
     fftw         :      1.88s CPU      1.90s WALL (     872 calls)

     Parallel routines

     PWSCF        :      6.26s CPU      6.46s WALL


   This run was terminated on:   4: 6:59  24May2021            

=------------------------------------------------------------------------------=
   JOB DONE.
=------------------------------------------------------------------------------=
