
     Program PWSCF v.6.7GPU starts on 24May2021 at  4:10:46 

     This program is part of the open-source Quantum ESPRESSO suite
     for quantum simulation of materials; please cite
         "P. Giannozzi et al., J. Phys.:Condens. Matter 21 395502 (2009);
         "P. Giannozzi et al., J. Phys.:Condens. Matter 29 465901 (2017);
         "P. Giannozzi et al., J. Chem. Phys. 152 154105 (2020);
          URL http://www.quantum-espresso.org", 
     in publications or presentations arising from this work. More details at
     http://www.quantum-espresso.org/quote

     Parallel version (MPI), running on     4 processors

     MPI processes distributed on     1 nodes
     R & G space division:  proc/nbgrp/npool/nimage =       4
     Waiting for input...
     Reading input from standard input
     Message from routine read_cards :
     DEPRECATED: no units specified in CELL_PARAMETERS card

     Current dimensions of program PWSCF are:
     Max number of different atomic species (ntypx) = 10
     Max number of k-points (npk) =  40000
     Max angular momentum in pseudopotentials (lmaxx) =  3

     gamma-point specific algorithms are used

     Subspace diagonalization in iterative solution of the eigenvalue problem:
     one sub-group per band group will be used
     scalapack distributed-memory algorithm (size of sub-group:  2*  2 procs)


     Parallelization info
     --------------------
     sticks:   dense  smooth     PW     G-vecs:    dense   smooth      PW
     Min        2862    2862    716               230578   230578   28824
     Max        2863    2863    718               230586   230586   28830
     Sum       11449   11449   2869               922329   922329  115313

     Using Slab Decomposition



     bravais-lattice index     =            0
     lattice parameter (alat)  =      20.0000  a.u.
     unit-cell volume          =    8000.0000 (a.u.)^3
     number of atoms/cell      =           11
     number of atomic types    =            2
     number of electrons       =        26.00
     number of Kohn-Sham states=           13
     kinetic-energy cutoff     =      90.0000  Ry
     charge density cutoff     =     360.0000  Ry
     scf convergence threshold =      1.0E-12
     mixing beta               =       0.5000
     number of iterations used =            8  plain     mixing
     Exchange-correlation= PBE
                           (   1   4   3   4   0   0   0)

     celldm(1)=  20.000000  celldm(2)=   0.000000  celldm(3)=   0.000000
     celldm(4)=   0.000000  celldm(5)=   0.000000  celldm(6)=   0.000000

     crystal axes: (cart. coord. in units of alat)
               a(1) = (   1.000000   0.000000   0.000000 )  
               a(2) = (   0.000000   1.000000   0.000000 )  
               a(3) = (   0.000000   0.000000   1.000000 )  

     reciprocal axes: (cart. coord. in units 2 pi/alat)
               b(1) = (  1.000000  0.000000  0.000000 )  
               b(2) = (  0.000000  1.000000  0.000000 )  
               b(3) = (  0.000000  0.000000  1.000000 )  


     PseudoPot. # 1 for C  read from file:
     /home/ciga/builds/pseudo_potentials/C.upf
     MD5 check sum: d80ec9912146af6c4c1760317d1f95e9
     Pseudo is Norm-conserving + core correction, Zval =  4.0
     Generated using ONCVPSP code by D. R. Hamann
     Using radial grid of 1248 points,  4 beta functions with: 
                l(1) =   0
                l(2) =   0
                l(3) =   1
                l(4) =   1

     PseudoPot. # 2 for H  read from file:
     /home/ciga/builds/pseudo_potentials/H.upf
     MD5 check sum: 418cee52d0c413ae40802e6cc37ab9e3
     Pseudo is Norm-conserving, Zval =  1.0
     Generated using ONCVPSP code by D. R. Hamann
     Using radial grid of 1166 points,  3 beta functions with: 
                l(1) =   0
                l(2) =   0
                l(3) =   1

     atomic species   valence    mass     pseudopotential
        C              4.00    12.01070     C ( 1.00)
        H              1.00     1.00794     H ( 1.00)

     No symmetry found



   Cartesian axes

     site n.     atom                  positions (alat units)
         1           C   tau(   1) = (   0.0694474   0.0000000   0.0000000  )
         2           C   tau(   2) = (  -0.0694474   0.0000000   0.0000000  )
         3           C   tau(   3) = (   0.1115657   0.0000000   0.1196012  )
         4           C   tau(   4) = (  -0.1115657   0.0000000   0.1196012  )
         5           C   tau(   5) = (  -0.0002921   0.0000000   0.2087482  )
         6           H   tau(   6) = (   0.2105633   0.0000000   0.1479990  )
         7           H   tau(   7) = (   0.1289402   0.0000000  -0.0840688  )
         8           H   tau(   8) = (  -0.1289700   0.0000000  -0.0840477  )
         9           H   tau(   9) = (  -0.2105947   0.0000000   0.1478893  )
        10           H   tau(  10) = (  -0.0001026   0.0836626   0.2688106  )
        11           H   tau(  11) = (  -0.0005388  -0.0834139   0.2691554  )

     number of k points=     1
                       cart. coord. in units 2pi/alat
        k(    1) = (   0.0000000   0.0000000   0.0000000), wk =   2.0000000

     Dense  grid:   461165 G-vectors     FFT dimensions: ( 125, 125, 125)

     Estimated max dynamical RAM per process >     116.37 MB

     Estimated total dynamical RAM >     465.50 MB

     Initial potential from superposition of free atoms

     starting charge   25.99972, renormalised to   26.00000

     negative rho (up, down):  1.334E-05 0.000E+00
     Starting wfcs are   26 randomized atomic wfcs

     total cpu time spent up to now is        2.0 secs

     Self-consistent Calculation

     iteration #  1     ecut=    90.00 Ry     beta= 0.50
     Davidson diagonalization with overlap
     ethr =  1.00E-02,  avg # of iterations =  2.0

     negative rho (up, down):  9.624E-07 0.000E+00

     total cpu time spent up to now is        4.2 secs

     total energy              =     -67.00036356 Ry
     estimated scf accuracy    <       1.32457254 Ry

     iteration #  2     ecut=    90.00 Ry     beta= 0.50
     Davidson diagonalization with overlap
     ethr =  5.09E-03,  avg # of iterations =  2.0

     negative rho (up, down):  1.675E-07 0.000E+00

     total cpu time spent up to now is        6.3 secs

     total energy              =     -67.20910783 Ry
     estimated scf accuracy    <       0.09677487 Ry

     iteration #  3     ecut=    90.00 Ry     beta= 0.50
     Davidson diagonalization with overlap
     ethr =  3.72E-04,  avg # of iterations =  2.0

     total cpu time spent up to now is        8.0 secs

     total energy              =     -67.20837896 Ry
     estimated scf accuracy    <       0.01790184 Ry

     iteration #  4     ecut=    90.00 Ry     beta= 0.50
     Davidson diagonalization with overlap
     ethr =  6.89E-05,  avg # of iterations =  2.0

     total cpu time spent up to now is       10.1 secs

     total energy              =     -67.21098677 Ry
     estimated scf accuracy    <       0.00212441 Ry

     iteration #  5     ecut=    90.00 Ry     beta= 0.50
     Davidson diagonalization with overlap
     ethr =  8.17E-06,  avg # of iterations =  3.0

     total cpu time spent up to now is       12.4 secs

     total energy              =     -67.21162793 Ry
     estimated scf accuracy    <       0.00137859 Ry

     iteration #  6     ecut=    90.00 Ry     beta= 0.50
     Davidson diagonalization with overlap
     ethr =  5.30E-06,  avg # of iterations =  2.0

     total cpu time spent up to now is       14.5 secs

     total energy              =     -67.21189810 Ry
     estimated scf accuracy    <       0.00001033 Ry

     iteration #  7     ecut=    90.00 Ry     beta= 0.50
     Davidson diagonalization with overlap
     ethr =  3.97E-08,  avg # of iterations =  6.0

     total cpu time spent up to now is       17.7 secs

     total energy              =     -67.21191302 Ry
     estimated scf accuracy    <       0.00002262 Ry

     iteration #  8     ecut=    90.00 Ry     beta= 0.50
     Davidson diagonalization with overlap
     ethr =  3.97E-08,  avg # of iterations =  2.0

     total cpu time spent up to now is       19.8 secs

     total energy              =     -67.21191541 Ry
     estimated scf accuracy    <       0.00000127 Ry

     iteration #  9     ecut=    90.00 Ry     beta= 0.50
     Davidson diagonalization with overlap
     ethr =  4.88E-09,  avg # of iterations =  3.0

     total cpu time spent up to now is       22.0 secs

     total energy              =     -67.21191577 Ry
     estimated scf accuracy    <       0.00000003 Ry

     iteration # 10     ecut=    90.00 Ry     beta= 0.50
     Davidson diagonalization with overlap
     ethr =  1.13E-10,  avg # of iterations =  5.0

     total cpu time spent up to now is       24.6 secs

     total energy              =     -67.21191578 Ry
     estimated scf accuracy    <          4.4E-09 Ry

     iteration # 11     ecut=    90.00 Ry     beta= 0.50
     Davidson diagonalization with overlap
     ethr =  1.70E-11,  avg # of iterations =  3.0

     total cpu time spent up to now is       26.9 secs

     total energy              =     -67.21191578 Ry
     estimated scf accuracy    <          9.6E-09 Ry

     iteration # 12     ecut=    90.00 Ry     beta= 0.50
     Davidson diagonalization with overlap
     ethr =  1.70E-11,  avg # of iterations =  3.0

     total cpu time spent up to now is       29.1 secs

     total energy              =     -67.21191578 Ry
     estimated scf accuracy    <          5.1E-10 Ry

     iteration # 13     ecut=    90.00 Ry     beta= 0.50
     Davidson diagonalization with overlap
     ethr =  1.96E-12,  avg # of iterations =  2.0

     total cpu time spent up to now is       31.1 secs

     total energy              =     -67.21191578 Ry
     estimated scf accuracy    <          9.0E-11 Ry

     iteration # 14     ecut=    90.00 Ry     beta= 0.50
     Davidson diagonalization with overlap
     ethr =  3.46E-13,  avg # of iterations =  2.0

     total cpu time spent up to now is       33.2 secs

     total energy              =     -67.21191578 Ry
     estimated scf accuracy    <          2.8E-12 Ry

     iteration # 15     ecut=    90.00 Ry     beta= 0.50
     Davidson diagonalization with overlap
     ethr =  1.00E-13,  avg # of iterations =  2.0

     total cpu time spent up to now is       35.0 secs

     total energy              =     -67.21191578 Ry
     estimated scf accuracy    <          2.2E-12 Ry

     iteration # 16     ecut=    90.00 Ry     beta= 0.50
     Davidson diagonalization with overlap
     ethr =  1.00E-13,  avg # of iterations =  1.0

     total cpu time spent up to now is       36.6 secs

     End of self-consistent calculation

          k = 0.0000 0.0000 0.0000 ( 57657 PWs)   bands (ev):

   -20.8035 -16.9022 -16.8667 -13.0151 -12.4003 -12.1243 -10.3291  -9.0595
    -8.5418  -8.1950  -8.1007  -6.9600  -4.9349

     highest occupied level (ev):    -4.9349

!    total energy              =     -67.21191578 Ry
     estimated scf accuracy    <          7.4E-14 Ry

     The total energy is the sum of the following terms:
     one-electron contribution =    -229.69338505 Ry
     hartree contribution      =     118.33615912 Ry
     xc contribution           =     -25.57827483 Ry
     ewald contribution        =      69.72358497 Ry

     convergence has been achieved in  16 iterations

     Forces acting on atoms (cartesian axes, Ry/au):

     atom    1 type  1   force =    -0.00930408    0.00002976   -0.02346027
     atom    2 type  1   force =     0.00921958   -0.00004841   -0.02381102
     atom    3 type  1   force =     0.00499143   -0.00052025    0.02285815
     atom    4 type  1   force =    -0.00832648    0.00017530    0.02050669
     atom    5 type  1   force =     0.00329880    0.00022657   -0.03214152
     atom    6 type  2   force =    -0.00621862    0.00001993    0.00388707
     atom    7 type  2   force =    -0.00412369    0.00005670    0.00091642
     atom    8 type  2   force =     0.00417947   -0.00000812    0.00088348
     atom    9 type  2   force =     0.00606742   -0.00000917    0.00375099
     atom   10 type  2   force =    -0.00021582    0.00853099    0.01341396
     atom   11 type  2   force =     0.00043198   -0.00845330    0.01319606

     Total force =     0.063323     Total SCF correction =     0.000000

     Writing output data file ./Cyclopentadiene.save/

     init_run     :      1.82s CPU      1.95s WALL (       1 calls)
     electrons    :     33.93s CPU     34.60s WALL (       1 calls)
     forces       :      1.14s CPU      1.15s WALL (       1 calls)

     Called by init_run:
     wfcinit      :      0.81s CPU      0.83s WALL (       1 calls)
     potinit      :      0.60s CPU      0.67s WALL (       1 calls)
     hinit0       :      0.23s CPU      0.25s WALL (       1 calls)

     Called by electrons:
     c_bands      :     20.83s CPU     20.96s WALL (      16 calls)
     sum_band     :      4.32s CPU      4.35s WALL (      16 calls)
     v_of_rho     :      6.91s CPU      7.45s WALL (      17 calls)
     mix_rho      :      2.05s CPU      2.09s WALL (      16 calls)

     Called by c_bands:
     init_us_2    :      0.27s CPU      0.28s WALL (      33 calls)
     regterg      :     20.48s CPU     20.60s WALL (      16 calls)

     Called by *egterg:
     rdiaghg      :      0.04s CPU      0.04s WALL (      58 calls)
     h_psi        :     18.36s CPU     18.47s WALL (      59 calls)
     g_psi        :      0.04s CPU      0.04s WALL (      42 calls)

     Called by h_psi:
     h_psi:calbec :      1.85s CPU      1.85s WALL (      59 calls)
     vloc_psi     :     14.89s CPU     15.00s WALL (      59 calls)
     add_vuspsi   :      1.52s CPU      1.52s WALL (      59 calls)

     General routines
     calbec       :      2.00s CPU      2.01s WALL (      63 calls)
     fft          :      4.96s CPU      5.07s WALL (     144 calls)
     ffts         :      0.56s CPU      0.56s WALL (      16 calls)
     fftw         :     14.12s CPU     14.22s WALL (     796 calls)

     Parallel routines

     PWSCF        :     36.95s CPU     37.80s WALL


   This run was terminated on:   4:11:24  24May2021            

=------------------------------------------------------------------------------=
   JOB DONE.
=------------------------------------------------------------------------------=
