
     Program PWSCF v.6.7GPU starts on 24May2021 at  7:23:40 

     This program is part of the open-source Quantum ESPRESSO suite
     for quantum simulation of materials; please cite
         "P. Giannozzi et al., J. Phys.:Condens. Matter 21 395502 (2009);
         "P. Giannozzi et al., J. Phys.:Condens. Matter 29 465901 (2017);
         "P. Giannozzi et al., J. Chem. Phys. 152 154105 (2020);
          URL http://www.quantum-espresso.org", 
     in publications or presentations arising from this work. More details at
     http://www.quantum-espresso.org/quote

     Parallel version (MPI), running on     4 processors

     MPI processes distributed on     1 nodes
     R & G space division:  proc/nbgrp/npool/nimage =       4
     Waiting for input...
     Reading input from standard input
     Message from routine read_cards :
     DEPRECATED: no units specified in CELL_PARAMETERS card

     Current dimensions of program PWSCF are:
     Max number of different atomic species (ntypx) = 10
     Max number of k-points (npk) =  40000
     Max angular momentum in pseudopotentials (lmaxx) =  3

     gamma-point specific algorithms are used

     Subspace diagonalization in iterative solution of the eigenvalue problem:
     one sub-group per band group will be used
     scalapack distributed-memory algorithm (size of sub-group:  2*  2 procs)


     Parallelization info
     --------------------
     sticks:   dense  smooth     PW     G-vecs:    dense   smooth      PW
     Min        2543    2543    637               193371   193371   24241
     Max        2548    2548    642               193374   193374   24244
     Sum       10185   10185   2561               773489   773489   96969

     Using Slab Decomposition



     bravais-lattice index     =            0
     lattice parameter (alat)  =      20.0000  a.u.
     unit-cell volume          =    8000.0000 (a.u.)^3
     number of atoms/cell      =            9
     number of atomic types    =            2
     number of electrons       =        18.00
     number of Kohn-Sham states=            9
     kinetic-energy cutoff     =      80.0000  Ry
     charge density cutoff     =     320.0000  Ry
     scf convergence threshold =      1.0E-12
     mixing beta               =       0.5000
     number of iterations used =            8  plain     mixing
     Exchange-correlation= PBE
                           (   1   4   3   4   0   0   0)

     celldm(1)=  20.000000  celldm(2)=   0.000000  celldm(3)=   0.000000
     celldm(4)=   0.000000  celldm(5)=   0.000000  celldm(6)=   0.000000

     crystal axes: (cart. coord. in units of alat)
               a(1) = (   1.000000   0.000000   0.000000 )  
               a(2) = (   0.000000   1.000000   0.000000 )  
               a(3) = (   0.000000   0.000000   1.000000 )  

     reciprocal axes: (cart. coord. in units 2 pi/alat)
               b(1) = (  1.000000  0.000000  0.000000 )  
               b(2) = (  0.000000  1.000000  0.000000 )  
               b(3) = (  0.000000  0.000000  1.000000 )  


     PseudoPot. # 1 for C  read from file:
     /home/ciga/builds/pseudo_potentials/C.upf
     MD5 check sum: d80ec9912146af6c4c1760317d1f95e9
     Pseudo is Norm-conserving + core correction, Zval =  4.0
     Generated using ONCVPSP code by D. R. Hamann
     Using radial grid of 1248 points,  4 beta functions with: 
                l(1) =   0
                l(2) =   0
                l(3) =   1
                l(4) =   1

     PseudoPot. # 2 for H  read from file:
     /home/ciga/builds/pseudo_potentials/H.upf
     MD5 check sum: 418cee52d0c413ae40802e6cc37ab9e3
     Pseudo is Norm-conserving, Zval =  1.0
     Generated using ONCVPSP code by D. R. Hamann
     Using radial grid of 1166 points,  3 beta functions with: 
                l(1) =   0
                l(2) =   0
                l(3) =   1

     atomic species   valence    mass     pseudopotential
        C              4.00    12.01070     C ( 1.00)
        H              1.00     1.00794     H ( 1.00)

     No symmetry found



   Cartesian axes

     site n.     atom                  positions (alat units)
         1           C   tau(   1) = (   0.0034462   0.0812489  -0.0172208  )
         2           C   tau(   2) = (  -0.0260474  -0.0533169  -0.0567132  )
         3           C   tau(   3) = (   0.0253626  -0.0268239   0.0743467  )
         4           H   tau(   4) = (  -0.0389670  -0.0359377   0.1534024  )
         5           H   tau(   5) = (   0.1214930  -0.0548224   0.0954693  )
         6           H   tau(   6) = (  -0.0752871   0.1439474   0.0012484  )
         7           H   tau(   7) = (   0.0847337   0.1275970  -0.0586375  )
         8           H   tau(   8) = (  -0.1258005  -0.0759317  -0.0597241  )
         9           H   tau(   9) = (   0.0298219  -0.1020343  -0.1272568  )

     number of k points=     1
                       cart. coord. in units 2pi/alat
        k(    1) = (   0.0000000   0.0000000   0.0000000), wk =   2.0000000

     Dense  grid:   386745 G-vectors     FFT dimensions: ( 120, 120, 120)

     Estimated max dynamical RAM per process >      91.90 MB

     Estimated total dynamical RAM >     367.59 MB

     Initial potential from superposition of free atoms

     starting charge   17.99981, renormalised to   18.00000

     negative rho (up, down):  6.888E-05 0.000E+00
     Starting wfcs are   18 randomized atomic wfcs

     total cpu time spent up to now is        1.4 secs

     Self-consistent Calculation

     iteration #  1     ecut=    80.00 Ry     beta= 0.50
     Davidson diagonalization with overlap
     ethr =  1.00E-02,  avg # of iterations =  2.0

     negative rho (up, down):  1.995E-05 0.000E+00

     total cpu time spent up to now is        2.8 secs

     total energy              =     -42.98958281 Ry
     estimated scf accuracy    <       1.07725236 Ry

     iteration #  2     ecut=    80.00 Ry     beta= 0.50
     Davidson diagonalization with overlap
     ethr =  5.98E-03,  avg # of iterations =  2.0

     negative rho (up, down):  7.387E-06 0.000E+00

     total cpu time spent up to now is        4.1 secs

     total energy              =     -43.17506010 Ry
     estimated scf accuracy    <       0.07858577 Ry

     iteration #  3     ecut=    80.00 Ry     beta= 0.50
     Davidson diagonalization with overlap
     ethr =  4.37E-04,  avg # of iterations =  1.0

     negative rho (up, down):  4.026E-07 0.000E+00

     total cpu time spent up to now is        5.3 secs

     total energy              =     -43.17070053 Ry
     estimated scf accuracy    <       0.01720179 Ry

     iteration #  4     ecut=    80.00 Ry     beta= 0.50
     Davidson diagonalization with overlap
     ethr =  9.56E-05,  avg # of iterations =  2.0

     negative rho (up, down):  2.125E-07 0.000E+00

     total cpu time spent up to now is        6.6 secs

     total energy              =     -43.17271036 Ry
     estimated scf accuracy    <       0.00306552 Ry

     iteration #  5     ecut=    80.00 Ry     beta= 0.50
     Davidson diagonalization with overlap
     ethr =  1.70E-05,  avg # of iterations =  3.0

     negative rho (up, down):  4.520E-08 0.000E+00

     total cpu time spent up to now is        8.0 secs

     total energy              =     -43.17327499 Ry
     estimated scf accuracy    <       0.00297657 Ry

     iteration #  6     ecut=    80.00 Ry     beta= 0.50
     Davidson diagonalization with overlap
     ethr =  1.65E-05,  avg # of iterations =  2.0

     total cpu time spent up to now is        9.4 secs

     total energy              =     -43.17396487 Ry
     estimated scf accuracy    <       0.00002415 Ry

     iteration #  7     ecut=    80.00 Ry     beta= 0.50
     Davidson diagonalization with overlap
     ethr =  1.34E-07,  avg # of iterations =  3.0

     total cpu time spent up to now is       10.9 secs

     total energy              =     -43.17396887 Ry
     estimated scf accuracy    <       0.00001106 Ry

     iteration #  8     ecut=    80.00 Ry     beta= 0.50
     Davidson diagonalization with overlap
     ethr =  6.14E-08,  avg # of iterations =  2.0

     total cpu time spent up to now is       12.3 secs

     total energy              =     -43.17397080 Ry
     estimated scf accuracy    <       0.00000065 Ry

     iteration #  9     ecut=    80.00 Ry     beta= 0.50
     Davidson diagonalization with overlap
     ethr =  3.61E-09,  avg # of iterations =  2.0

     total cpu time spent up to now is       13.7 secs

     total energy              =     -43.17397087 Ry
     estimated scf accuracy    <       0.00000098 Ry

     iteration # 10     ecut=    80.00 Ry     beta= 0.50
     Davidson diagonalization with overlap
     ethr =  3.61E-09,  avg # of iterations =  1.0

     total cpu time spent up to now is       14.9 secs

     total energy              =     -43.17397066 Ry
     estimated scf accuracy    <       0.00000040 Ry

     iteration # 11     ecut=    80.00 Ry     beta= 0.50
     Davidson diagonalization with overlap
     ethr =  2.23E-09,  avg # of iterations =  2.0

     total cpu time spent up to now is       16.2 secs

     total energy              =     -43.17397078 Ry
     estimated scf accuracy    <       0.00000001 Ry

     iteration # 12     ecut=    80.00 Ry     beta= 0.50
     Davidson diagonalization with overlap
     ethr =  5.89E-11,  avg # of iterations =  3.0

     total cpu time spent up to now is       17.7 secs

     total energy              =     -43.17397078 Ry
     estimated scf accuracy    <       0.00000001 Ry

     iteration # 13     ecut=    80.00 Ry     beta= 0.50
     Davidson diagonalization with overlap
     ethr =  5.75E-11,  avg # of iterations =  2.0

     total cpu time spent up to now is       19.1 secs

     total energy              =     -43.17397078 Ry
     estimated scf accuracy    <          3.5E-10 Ry

     iteration # 14     ecut=    80.00 Ry     beta= 0.50
     Davidson diagonalization with overlap
     ethr =  1.92E-12,  avg # of iterations =  3.0

     total cpu time spent up to now is       20.5 secs

     total energy              =     -43.17397078 Ry
     estimated scf accuracy    <          3.0E-11 Ry

     iteration # 15     ecut=    80.00 Ry     beta= 0.50
     Davidson diagonalization with overlap
     ethr =  1.65E-13,  avg # of iterations =  3.0

     total cpu time spent up to now is       22.0 secs

     total energy              =     -43.17397078 Ry
     estimated scf accuracy    <          7.1E-12 Ry

     iteration # 16     ecut=    80.00 Ry     beta= 0.50
     Davidson diagonalization with overlap
     ethr =  1.00E-13,  avg # of iterations =  2.0

     total cpu time spent up to now is       23.3 secs

     total energy              =     -43.17397078 Ry
     estimated scf accuracy    <          4.4E-12 Ry

     iteration # 17     ecut=    80.00 Ry     beta= 0.50
     Davidson diagonalization with overlap
     ethr =  1.00E-13,  avg # of iterations =  1.0

     total cpu time spent up to now is       24.4 secs

     End of self-consistent calculation

          k = 0.0000 0.0000 0.0000 ( 48485 PWs)   bands (ev):

   -20.7266 -14.2961 -14.2877 -11.7232 -11.0762  -8.3698  -8.3590  -6.7397
    -6.7363

     highest occupied level (ev):    -6.7363

!    total energy              =     -43.17397078 Ry
     estimated scf accuracy    <          1.1E-13 Ry

     The total energy is the sum of the following terms:
     one-electron contribution =    -138.30658660 Ry
     hartree contribution      =      71.42642276 Ry
     xc contribution           =     -17.14973795 Ry
     ewald contribution        =      40.85593101 Ry

     convergence has been achieved in  17 iterations

     Forces acting on atoms (cartesian axes, Ry/au):

     atom    1 type  1   force =     0.00549825   -0.01793937    0.00194838
     atom    2 type  1   force =    -0.01219417    0.01389312    0.01860659
     atom    3 type  1   force =    -0.00043551    0.00472073   -0.01725047
     atom    4 type  2   force =    -0.00431562   -0.00127588    0.00423270
     atom    5 type  2   force =     0.00698895    0.00063451   -0.00062206
     atom    6 type  2   force =    -0.00539863    0.00297672    0.00018303
     atom    7 type  2   force =     0.00665670    0.00093018   -0.00144210
     atom    8 type  2   force =    -0.00643667   -0.00576180   -0.00506868
     atom    9 type  2   force =     0.00963669    0.00182179   -0.00058739

     Total force =     0.041639     Total SCF correction =     0.000001

     Writing output data file ./Cyclopropane.save/

     init_run     :      1.28s CPU      1.38s WALL (       1 calls)
     electrons    :     22.40s CPU     22.96s WALL (       1 calls)
     forces       :      0.82s CPU      0.87s WALL (       1 calls)

     Called by init_run:
     wfcinit      :      0.43s CPU      0.44s WALL (       1 calls)
     potinit      :      0.52s CPU      0.58s WALL (       1 calls)
     hinit0       :      0.20s CPU      0.22s WALL (       1 calls)

     Called by electrons:
     c_bands      :     11.08s CPU     11.17s WALL (      17 calls)
     sum_band     :      3.18s CPU      3.21s WALL (      17 calls)
     v_of_rho     :      6.39s CPU      6.84s WALL (      18 calls)
     mix_rho      :      1.90s CPU      1.93s WALL (      17 calls)

     Called by c_bands:
     init_us_2    :      0.20s CPU      0.20s WALL (      35 calls)
     regterg      :     10.84s CPU     10.93s WALL (      17 calls)

     Called by *egterg:
     rdiaghg      :      0.03s CPU      0.03s WALL (      53 calls)
     h_psi        :     10.07s CPU     10.15s WALL (      54 calls)
     g_psi        :      0.02s CPU      0.02s WALL (      36 calls)

     Called by h_psi:
     h_psi:calbec :      0.83s CPU      0.84s WALL (      54 calls)
     vloc_psi     :      8.48s CPU      8.55s WALL (      54 calls)
     add_vuspsi   :      0.70s CPU      0.70s WALL (      54 calls)

     General routines
     calbec       :      0.90s CPU      0.90s WALL (      58 calls)
     fft          :      4.54s CPU      4.65s WALL (     152 calls)
     ffts         :      0.49s CPU      0.50s WALL (      17 calls)
     fftw         :      8.01s CPU      8.07s WALL (     575 calls)

     Parallel routines

     PWSCF        :     24.58s CPU     25.31s WALL


   This run was terminated on:   7:24: 5  24May2021            

=------------------------------------------------------------------------------=
   JOB DONE.
=------------------------------------------------------------------------------=
