
     Program PWSCF v.6.7GPU starts on 24May2021 at  5: 3: 7 

     This program is part of the open-source Quantum ESPRESSO suite
     for quantum simulation of materials; please cite
         "P. Giannozzi et al., J. Phys.:Condens. Matter 21 395502 (2009);
         "P. Giannozzi et al., J. Phys.:Condens. Matter 29 465901 (2017);
         "P. Giannozzi et al., J. Chem. Phys. 152 154105 (2020);
          URL http://www.quantum-espresso.org", 
     in publications or presentations arising from this work. More details at
     http://www.quantum-espresso.org/quote

     Parallel version (MPI), running on     4 processors

     MPI processes distributed on     1 nodes
     R & G space division:  proc/nbgrp/npool/nimage =       4
     Waiting for input...
     Reading input from standard input
     Message from routine read_cards :
     DEPRECATED: no units specified in CELL_PARAMETERS card

     Current dimensions of program PWSCF are:
     Max number of different atomic species (ntypx) = 10
     Max number of k-points (npk) =  40000
     Max angular momentum in pseudopotentials (lmaxx) =  3

     gamma-point specific algorithms are used

     Subspace diagonalization in iterative solution of the eigenvalue problem:
     one sub-group per band group will be used
     scalapack distributed-memory algorithm (size of sub-group:  2*  2 procs)


     Parallelization info
     --------------------
     sticks:   dense  smooth     PW     G-vecs:    dense   smooth      PW
     Min         951     951    236                44375    44375    5524
     Max         954     954    238                44382    44382    5534
     Sum        3809    3809    949               177509   177509   22119

     Using Slab Decomposition



     bravais-lattice index     =            0
     lattice parameter (alat)  =      20.0000  a.u.
     unit-cell volume          =    8000.0000 (a.u.)^3
     number of atoms/cell      =           16
     number of atomic types    =            2
     number of electrons       =        40.00
     number of Kohn-Sham states=           20
     kinetic-energy cutoff     =      30.0000  Ry
     charge density cutoff     =     120.0000  Ry
     scf convergence threshold =      1.0E-12
     mixing beta               =       0.5000
     number of iterations used =            8  plain     mixing
     Exchange-correlation= PBE
                           (   1   4   3   4   0   0   0)

     celldm(1)=  20.000000  celldm(2)=   0.000000  celldm(3)=   0.000000
     celldm(4)=   0.000000  celldm(5)=   0.000000  celldm(6)=   0.000000

     crystal axes: (cart. coord. in units of alat)
               a(1) = (   1.000000   0.000000   0.000000 )  
               a(2) = (   0.000000   1.000000   0.000000 )  
               a(3) = (   0.000000   0.000000   1.000000 )  

     reciprocal axes: (cart. coord. in units 2 pi/alat)
               b(1) = (  1.000000  0.000000  0.000000 )  
               b(2) = (  0.000000  1.000000  0.000000 )  
               b(3) = (  0.000000  0.000000  1.000000 )  


     PseudoPot. # 1 for C  read from file:
     /home/ciga/builds/pseudo_potentials/C.upf
     MD5 check sum: d80ec9912146af6c4c1760317d1f95e9
     Pseudo is Norm-conserving + core correction, Zval =  4.0
     Generated using ONCVPSP code by D. R. Hamann
     Using radial grid of 1248 points,  4 beta functions with: 
                l(1) =   0
                l(2) =   0
                l(3) =   1
                l(4) =   1

     PseudoPot. # 2 for H  read from file:
     /home/ciga/builds/pseudo_potentials/H.upf
     MD5 check sum: 418cee52d0c413ae40802e6cc37ab9e3
     Pseudo is Norm-conserving, Zval =  1.0
     Generated using ONCVPSP code by D. R. Hamann
     Using radial grid of 1166 points,  3 beta functions with: 
                l(1) =   0
                l(2) =   0
                l(3) =   1

     atomic species   valence    mass     pseudopotential
        C              4.00    12.01070     C ( 1.00)
        H              1.00     1.00794     H ( 1.00)

     No symmetry found



   Cartesian axes

     site n.     atom                  positions (alat units)
         1           C   tau(   1) = (  -0.0248216  -0.1574425   0.0362166  )
         2           C   tau(   2) = (   0.0976138  -0.1266967   0.0361599  )
         3           C   tau(   3) = (  -0.0972925   0.1266778   0.0363300  )
         4           C   tau(   4) = (   0.0248499   0.1574709   0.0362355  )
         5           C   tau(   5) = (  -0.1268384  -0.0970563  -0.0358670  )
         6           C   tau(   6) = (   0.1584535  -0.0248971  -0.0362544  )
         7           C   tau(   7) = (  -0.1591244   0.0247082  -0.0369536  )
         8           C   tau(   8) = (   0.1271313   0.0974343  -0.0361221  )
         9           H   tau(   9) = (  -0.0537627  -0.2408645   0.0912643  )
        10           H   tau(  10) = (   0.1626487  -0.1863270   0.0912360  )
        11           H   tau(  11) = (  -0.1623653   0.1862325   0.0916706  )
        12           H   tau(  12) = (   0.0539139   0.2407606   0.0916328  )
        13           H   tau(  13) = (  -0.1860246  -0.1632251  -0.0904706  )
        14           H   tau(  14) = (   0.2419133  -0.0536493  -0.0911793  )
        15           H   tau(  15) = (  -0.2427259   0.0530163  -0.0917462  )
        16           H   tau(  16) = (   0.1866199   0.1628566  -0.0908297  )

     number of k points=     1
                       cart. coord. in units 2pi/alat
        k(    1) = (   0.0000000   0.0000000   0.0000000), wk =   2.0000000

     Dense  grid:    88755 G-vectors     FFT dimensions: (  72,  72,  72)

     Estimated max dynamical RAM per process >      25.49 MB

     Estimated total dynamical RAM >     101.95 MB

     Check: negative core charge=   -0.000001

     Initial potential from superposition of free atoms

     starting charge   39.99957, renormalised to   40.00000

     negative rho (up, down):  9.296E-03 0.000E+00
     Starting wfcs are   40 randomized atomic wfcs

     total cpu time spent up to now is        0.5 secs

     Self-consistent Calculation

     iteration #  1     ecut=    30.00 Ry     beta= 0.50
     Davidson diagonalization with overlap
     ethr =  1.00E-02,  avg # of iterations =  2.0

     negative rho (up, down):  4.367E-03 0.000E+00

     total cpu time spent up to now is        1.0 secs

     total energy              =    -104.40643376 Ry
     estimated scf accuracy    <       1.44747185 Ry

     iteration #  2     ecut=    30.00 Ry     beta= 0.50
     Davidson diagonalization with overlap
     ethr =  3.62E-03,  avg # of iterations =  2.0

     negative rho (up, down):  1.632E-03 0.000E+00

     total cpu time spent up to now is        1.4 secs

     total energy              =    -104.55942410 Ry
     estimated scf accuracy    <       0.13338753 Ry

     iteration #  3     ecut=    30.00 Ry     beta= 0.50
     Davidson diagonalization with overlap
     ethr =  3.33E-04,  avg # of iterations =  2.0

     negative rho (up, down):  1.519E-04 0.000E+00

     total cpu time spent up to now is        1.8 secs

     total energy              =    -104.56312824 Ry
     estimated scf accuracy    <       0.01771320 Ry

     iteration #  4     ecut=    30.00 Ry     beta= 0.50
     Davidson diagonalization with overlap
     ethr =  4.43E-05,  avg # of iterations =  2.0

     negative rho (up, down):  1.409E-06 0.000E+00

     total cpu time spent up to now is        2.3 secs

     total energy              =    -104.56529504 Ry
     estimated scf accuracy    <       0.00103305 Ry

     iteration #  5     ecut=    30.00 Ry     beta= 0.50
     Davidson diagonalization with overlap
     ethr =  2.58E-06,  avg # of iterations =  3.0

     negative rho (up, down):  2.683E-07 0.000E+00

     total cpu time spent up to now is        2.7 secs

     total energy              =    -104.56568338 Ry
     estimated scf accuracy    <       0.00025982 Ry

     iteration #  6     ecut=    30.00 Ry     beta= 0.50
     Davidson diagonalization with overlap
     ethr =  6.50E-07,  avg # of iterations =  4.0

     total cpu time spent up to now is        3.2 secs

     total energy              =    -104.56575850 Ry
     estimated scf accuracy    <       0.00001231 Ry

     iteration #  7     ecut=    30.00 Ry     beta= 0.50
     Davidson diagonalization with overlap
     ethr =  3.08E-08,  avg # of iterations =  5.0

     total cpu time spent up to now is        3.8 secs

     total energy              =    -104.56576629 Ry
     estimated scf accuracy    <       0.00000170 Ry

     iteration #  8     ecut=    30.00 Ry     beta= 0.50
     Davidson diagonalization with overlap
     ethr =  4.25E-09,  avg # of iterations =  2.0

     total cpu time spent up to now is        4.3 secs

     total energy              =    -104.56576662 Ry
     estimated scf accuracy    <       0.00000015 Ry

     iteration #  9     ecut=    30.00 Ry     beta= 0.50
     Davidson diagonalization with overlap
     ethr =  3.85E-10,  avg # of iterations =  3.0

     total cpu time spent up to now is        4.8 secs

     total energy              =    -104.56576667 Ry
     estimated scf accuracy    <       0.00000001 Ry

     iteration # 10     ecut=    30.00 Ry     beta= 0.50
     Davidson diagonalization with overlap
     ethr =  2.79E-11,  avg # of iterations =  5.0

     total cpu time spent up to now is        5.3 secs

     total energy              =    -104.56576667 Ry
     estimated scf accuracy    <          1.9E-09 Ry

     iteration # 11     ecut=    30.00 Ry     beta= 0.50
     Davidson diagonalization with overlap
     ethr =  4.63E-12,  avg # of iterations =  3.0

     total cpu time spent up to now is        5.8 secs

     total energy              =    -104.56576667 Ry
     estimated scf accuracy    <          1.2E-10 Ry

     iteration # 12     ecut=    30.00 Ry     beta= 0.50
     Davidson diagonalization with overlap
     ethr =  3.03E-13,  avg # of iterations =  5.0

     total cpu time spent up to now is        6.3 secs

     total energy              =    -104.56576667 Ry
     estimated scf accuracy    <          4.0E-11 Ry

     iteration # 13     ecut=    30.00 Ry     beta= 0.50
     Davidson diagonalization with overlap
     ethr =  1.01E-13,  avg # of iterations =  5.0

     total cpu time spent up to now is        6.9 secs

     total energy              =    -104.56576667 Ry
     estimated scf accuracy    <          8.0E-11 Ry

     iteration # 14     ecut=    30.00 Ry     beta= 0.50
     Davidson diagonalization with overlap
     ethr =  1.01E-13,  avg # of iterations =  3.0

     total cpu time spent up to now is        7.3 secs

     total energy              =    -104.56576667 Ry
     estimated scf accuracy    <          1.6E-11 Ry

     iteration # 15     ecut=    30.00 Ry     beta= 0.50
     Davidson diagonalization with overlap
     ethr =  1.00E-13,  avg # of iterations =  4.0

     total cpu time spent up to now is        7.7 secs

     total energy              =    -104.56576667 Ry
     estimated scf accuracy    <          1.8E-12 Ry

     iteration # 16     ecut=    30.00 Ry     beta= 0.50
     Davidson diagonalization with overlap
     ethr =  1.00E-13,  avg # of iterations =  1.0

     total cpu time spent up to now is        8.1 secs

     End of self-consistent calculation

          k = 0.0000 0.0000 0.0000 ( 11060 PWs)   bands (ev):

   -20.3212 -18.9006 -18.8803 -16.7264 -15.7419 -13.3157 -13.2700 -11.7680
   -10.4357 -10.4137 -10.3270 -10.2821  -9.7221  -8.0059  -7.9627  -7.1548
    -6.8625  -5.9452  -5.9391  -4.5241

     highest occupied level (ev):    -4.5241

!    total energy              =    -104.56576667 Ry
     estimated scf accuracy    <          5.0E-13 Ry

     The total energy is the sum of the following terms:
     one-electron contribution =    -367.63354195 Ry
     hartree contribution      =     189.24584091 Ry
     xc contribution           =     -39.35641202 Ry
     ewald contribution        =     113.17834639 Ry

     convergence has been achieved in  16 iterations

     Forces acting on atoms (cartesian axes, Ry/au):

     atom    1 type  1   force =    -0.04081014   -0.00101412   -0.00149751
     atom    2 type  1   force =     0.03766894    0.01951444   -0.00478319
     atom    3 type  1   force =    -0.05173627   -0.02406214   -0.00990963
     atom    4 type  1   force =     0.04963197    0.00493927   -0.00295788
     atom    5 type  1   force =     0.01530973   -0.04658431   -0.00143095
     atom    6 type  1   force =    -0.00017614   -0.04094711    0.00467777
     atom    7 type  1   force =     0.00817533    0.05310584    0.01321019
     atom    8 type  1   force =    -0.01998003    0.03491856    0.00348012
     atom    9 type  2   force =    -0.00203491   -0.00936047    0.00485351
     atom   10 type  2   force =     0.00704997   -0.00805266    0.00471469
     atom   11 type  2   force =    -0.00590619    0.00665755    0.00438679
     atom   12 type  2   force =     0.00123398    0.00813860    0.00444984
     atom   13 type  2   force =    -0.00674244   -0.00565053   -0.00383221
     atom   14 type  2   force =     0.01042311   -0.00235386   -0.00500212
     atom   15 type  2   force =    -0.01002028    0.00323300   -0.00521767
     atom   16 type  2   force =     0.00791336    0.00751795   -0.00514176

     Total force =     0.138174     Total SCF correction =     0.000001

     Writing output data file ./Cyclooctatetraene.save/

     init_run     :      0.42s CPU      0.44s WALL (       1 calls)
     electrons    :      7.38s CPU      7.55s WALL (       1 calls)
     forces       :      0.29s CPU      0.30s WALL (       1 calls)

     Called by init_run:
     wfcinit      :      0.20s CPU      0.21s WALL (       1 calls)
     potinit      :      0.13s CPU      0.15s WALL (       1 calls)
     hinit0       :      0.06s CPU      0.06s WALL (       1 calls)

     Called by electrons:
     c_bands      :      5.05s CPU      5.10s WALL (      16 calls)
     sum_band     :      0.79s CPU      0.80s WALL (      16 calls)
     v_of_rho     :      1.31s CPU      1.42s WALL (      17 calls)
     mix_rho      :      0.25s CPU      0.26s WALL (      16 calls)

     Called by c_bands:
     init_us_2    :      0.07s CPU      0.08s WALL (      33 calls)
     regterg      :      4.95s CPU      4.99s WALL (      16 calls)

     Called by *egterg:
     rdiaghg      :      0.06s CPU      0.06s WALL (      67 calls)
     h_psi        :      4.13s CPU      4.17s WALL (      68 calls)
     g_psi        :      0.01s CPU      0.01s WALL (      51 calls)

     Called by h_psi:
     h_psi:calbec :      0.81s CPU      0.82s WALL (      68 calls)
     vloc_psi     :      2.66s CPU      2.69s WALL (      68 calls)
     add_vuspsi   :      0.64s CPU      0.64s WALL (      68 calls)

     General routines
     calbec       :      0.88s CPU      0.89s WALL (      72 calls)
     fft          :      0.68s CPU      0.71s WALL (     144 calls)
     ffts         :      0.08s CPU      0.08s WALL (      16 calls)
     fftw         :      2.42s CPU      2.45s WALL (    1138 calls)

     Parallel routines

     PWSCF        :      8.17s CPU      8.38s WALL


   This run was terminated on:   5: 3:16  24May2021            

=------------------------------------------------------------------------------=
   JOB DONE.
=------------------------------------------------------------------------------=
