
     Program PWSCF v.6.7GPU starts on 24May2021 at  4:10:12 

     This program is part of the open-source Quantum ESPRESSO suite
     for quantum simulation of materials; please cite
         "P. Giannozzi et al., J. Phys.:Condens. Matter 21 395502 (2009);
         "P. Giannozzi et al., J. Phys.:Condens. Matter 29 465901 (2017);
         "P. Giannozzi et al., J. Chem. Phys. 152 154105 (2020);
          URL http://www.quantum-espresso.org", 
     in publications or presentations arising from this work. More details at
     http://www.quantum-espresso.org/quote

     Parallel version (MPI), running on     4 processors

     MPI processes distributed on     1 nodes
     R & G space division:  proc/nbgrp/npool/nimage =       4
     Waiting for input...
     Reading input from standard input
     Message from routine read_cards :
     DEPRECATED: no units specified in CELL_PARAMETERS card

     Current dimensions of program PWSCF are:
     Max number of different atomic species (ntypx) = 10
     Max number of k-points (npk) =  40000
     Max angular momentum in pseudopotentials (lmaxx) =  3

     gamma-point specific algorithms are used

     Subspace diagonalization in iterative solution of the eigenvalue problem:
     one sub-group per band group will be used
     scalapack distributed-memory algorithm (size of sub-group:  2*  2 procs)


     Parallelization info
     --------------------
     sticks:   dense  smooth     PW     G-vecs:    dense   smooth      PW
     Min        2700    2700    675               211636   211636   26505
     Max        2704    2704    678               211641   211641   26514
     Sum       10805   10805   2709               846553   846553  106047

     Using Slab Decomposition



     bravais-lattice index     =            0
     lattice parameter (alat)  =      20.0000  a.u.
     unit-cell volume          =    8000.0000 (a.u.)^3
     number of atoms/cell      =           11
     number of atomic types    =            2
     number of electrons       =        26.00
     number of Kohn-Sham states=           13
     kinetic-energy cutoff     =      85.0000  Ry
     charge density cutoff     =     340.0000  Ry
     scf convergence threshold =      1.0E-12
     mixing beta               =       0.5000
     number of iterations used =            8  plain     mixing
     Exchange-correlation= PBE
                           (   1   4   3   4   0   0   0)

     celldm(1)=  20.000000  celldm(2)=   0.000000  celldm(3)=   0.000000
     celldm(4)=   0.000000  celldm(5)=   0.000000  celldm(6)=   0.000000

     crystal axes: (cart. coord. in units of alat)
               a(1) = (   1.000000   0.000000   0.000000 )  
               a(2) = (   0.000000   1.000000   0.000000 )  
               a(3) = (   0.000000   0.000000   1.000000 )  

     reciprocal axes: (cart. coord. in units 2 pi/alat)
               b(1) = (  1.000000  0.000000  0.000000 )  
               b(2) = (  0.000000  1.000000  0.000000 )  
               b(3) = (  0.000000  0.000000  1.000000 )  


     PseudoPot. # 1 for C  read from file:
     /home/ciga/builds/pseudo_potentials/C.upf
     MD5 check sum: d80ec9912146af6c4c1760317d1f95e9
     Pseudo is Norm-conserving + core correction, Zval =  4.0
     Generated using ONCVPSP code by D. R. Hamann
     Using radial grid of 1248 points,  4 beta functions with: 
                l(1) =   0
                l(2) =   0
                l(3) =   1
                l(4) =   1

     PseudoPot. # 2 for H  read from file:
     /home/ciga/builds/pseudo_potentials/H.upf
     MD5 check sum: 418cee52d0c413ae40802e6cc37ab9e3
     Pseudo is Norm-conserving, Zval =  1.0
     Generated using ONCVPSP code by D. R. Hamann
     Using radial grid of 1166 points,  3 beta functions with: 
                l(1) =   0
                l(2) =   0
                l(3) =   1

     atomic species   valence    mass     pseudopotential
        C              4.00    12.01070     C ( 1.00)
        H              1.00     1.00794     H ( 1.00)

     No symmetry found



   Cartesian axes

     site n.     atom                  positions (alat units)
         1           C   tau(   1) = (   0.0694474   0.0000000   0.0000000  )
         2           C   tau(   2) = (  -0.0694474   0.0000000   0.0000000  )
         3           C   tau(   3) = (   0.1115657   0.0000000   0.1196012  )
         4           C   tau(   4) = (  -0.1115657   0.0000000   0.1196012  )
         5           C   tau(   5) = (  -0.0002921   0.0000000   0.2087482  )
         6           H   tau(   6) = (   0.2105633   0.0000000   0.1479990  )
         7           H   tau(   7) = (   0.1289402   0.0000000  -0.0840688  )
         8           H   tau(   8) = (  -0.1289700   0.0000000  -0.0840477  )
         9           H   tau(   9) = (  -0.2105947   0.0000000   0.1478893  )
        10           H   tau(  10) = (  -0.0001026   0.0836626   0.2688106  )
        11           H   tau(  11) = (  -0.0005388  -0.0834139   0.2691554  )

     number of k points=     1
                       cart. coord. in units 2pi/alat
        k(    1) = (   0.0000000   0.0000000   0.0000000), wk =   2.0000000

     Dense  grid:   423277 G-vectors     FFT dimensions: ( 120, 120, 120)

     Estimated max dynamical RAM per process >     105.01 MB

     Estimated total dynamical RAM >     420.05 MB

     Initial potential from superposition of free atoms

     starting charge   25.99972, renormalised to   26.00000

     negative rho (up, down):  3.889E-05 0.000E+00
     Starting wfcs are   26 randomized atomic wfcs

     total cpu time spent up to now is        1.8 secs

     Self-consistent Calculation

     iteration #  1     ecut=    85.00 Ry     beta= 0.50
     Davidson diagonalization with overlap
     ethr =  1.00E-02,  avg # of iterations =  2.0

     negative rho (up, down):  7.760E-06 0.000E+00

     total cpu time spent up to now is        3.7 secs

     total energy              =     -66.99966718 Ry
     estimated scf accuracy    <       1.32574605 Ry

     iteration #  2     ecut=    85.00 Ry     beta= 0.50
     Davidson diagonalization with overlap
     ethr =  5.10E-03,  avg # of iterations =  2.0

     negative rho (up, down):  2.268E-06 0.000E+00

     total cpu time spent up to now is        5.4 secs

     total energy              =     -67.20908259 Ry
     estimated scf accuracy    <       0.09697993 Ry

     iteration #  3     ecut=    85.00 Ry     beta= 0.50
     Davidson diagonalization with overlap
     ethr =  3.73E-04,  avg # of iterations =  2.0

     negative rho (up, down):  1.350E-07 0.000E+00

     total cpu time spent up to now is        7.0 secs

     total energy              =     -67.20831570 Ry
     estimated scf accuracy    <       0.01796658 Ry

     iteration #  4     ecut=    85.00 Ry     beta= 0.50
     Davidson diagonalization with overlap
     ethr =  6.91E-05,  avg # of iterations =  2.0

     negative rho (up, down):  1.960E-08 0.000E+00

     total cpu time spent up to now is        8.8 secs

     total energy              =     -67.21091861 Ry
     estimated scf accuracy    <       0.00213995 Ry

     iteration #  5     ecut=    85.00 Ry     beta= 0.50
     Davidson diagonalization with overlap
     ethr =  8.23E-06,  avg # of iterations =  3.0

     total cpu time spent up to now is       10.7 secs

     total energy              =     -67.21156653 Ry
     estimated scf accuracy    <       0.00137509 Ry

     iteration #  6     ecut=    85.00 Ry     beta= 0.50
     Davidson diagonalization with overlap
     ethr =  5.29E-06,  avg # of iterations =  2.0

     total cpu time spent up to now is       12.5 secs

     total energy              =     -67.21183293 Ry
     estimated scf accuracy    <       0.00001083 Ry

     iteration #  7     ecut=    85.00 Ry     beta= 0.50
     Davidson diagonalization with overlap
     ethr =  4.16E-08,  avg # of iterations =  6.0

     total cpu time spent up to now is       15.3 secs

     total energy              =     -67.21184809 Ry
     estimated scf accuracy    <       0.00002268 Ry

     iteration #  8     ecut=    85.00 Ry     beta= 0.50
     Davidson diagonalization with overlap
     ethr =  4.16E-08,  avg # of iterations =  2.0

     total cpu time spent up to now is       17.2 secs

     total energy              =     -67.21185024 Ry
     estimated scf accuracy    <       0.00000147 Ry

     iteration #  9     ecut=    85.00 Ry     beta= 0.50
     Davidson diagonalization with overlap
     ethr =  5.66E-09,  avg # of iterations =  2.0

     total cpu time spent up to now is       19.0 secs

     total energy              =     -67.21185066 Ry
     estimated scf accuracy    <       0.00000004 Ry

     iteration # 10     ecut=    85.00 Ry     beta= 0.50
     Davidson diagonalization with overlap
     ethr =  1.41E-10,  avg # of iterations =  5.0

     total cpu time spent up to now is       21.3 secs

     total energy              =     -67.21185068 Ry
     estimated scf accuracy    <          8.0E-09 Ry

     iteration # 11     ecut=    85.00 Ry     beta= 0.50
     Davidson diagonalization with overlap
     ethr =  3.09E-11,  avg # of iterations =  2.0

     total cpu time spent up to now is       22.9 secs

     total energy              =     -67.21185067 Ry
     estimated scf accuracy    <          3.9E-09 Ry

     iteration # 12     ecut=    85.00 Ry     beta= 0.50
     Davidson diagonalization with overlap
     ethr =  1.51E-11,  avg # of iterations =  2.0

     total cpu time spent up to now is       24.7 secs

     total energy              =     -67.21185067 Ry
     estimated scf accuracy    <          1.7E-10 Ry

     iteration # 13     ecut=    85.00 Ry     beta= 0.50
     Davidson diagonalization with overlap
     ethr =  6.36E-13,  avg # of iterations =  4.0

     total cpu time spent up to now is       26.7 secs

     total energy              =     -67.21185067 Ry
     estimated scf accuracy    <          4.5E-11 Ry

     iteration # 14     ecut=    85.00 Ry     beta= 0.50
     Davidson diagonalization with overlap
     ethr =  1.73E-13,  avg # of iterations =  2.0

     total cpu time spent up to now is       28.5 secs

     total energy              =     -67.21185067 Ry
     estimated scf accuracy    <          4.4E-12 Ry

     iteration # 15     ecut=    85.00 Ry     beta= 0.50
     Davidson diagonalization with overlap
     ethr =  1.00E-13,  avg # of iterations =  4.0

     total cpu time spent up to now is       30.2 secs

     total energy              =     -67.21185067 Ry
     estimated scf accuracy    <          2.6E-12 Ry

     iteration # 16     ecut=    85.00 Ry     beta= 0.50
     Davidson diagonalization with overlap
     ethr =  1.00E-13,  avg # of iterations =  1.0

     total cpu time spent up to now is       31.7 secs

     total energy              =     -67.21185067 Ry
     estimated scf accuracy    <          1.0E-12 Ry

     iteration # 17     ecut=    85.00 Ry     beta= 0.50
     Davidson diagonalization with overlap
     ethr =  1.00E-13,  avg # of iterations =  1.0

     total cpu time spent up to now is       33.1 secs

     End of self-consistent calculation

          k = 0.0000 0.0000 0.0000 ( 53024 PWs)   bands (ev):

   -20.8035 -16.9022 -16.8667 -13.0152 -12.4003 -12.1243 -10.3291  -9.0595
    -8.5419  -8.1950  -8.1007  -6.9600  -4.9349

     highest occupied level (ev):    -4.9349

!    total energy              =     -67.21185067 Ry
     estimated scf accuracy    <          1.8E-13 Ry

     The total energy is the sum of the following terms:
     one-electron contribution =    -229.69326674 Ry
     hartree contribution      =     118.33606724 Ry
     xc contribution           =     -25.57823615 Ry
     ewald contribution        =      69.72358497 Ry

     convergence has been achieved in  17 iterations

     Forces acting on atoms (cartesian axes, Ry/au):

     atom    1 type  1   force =    -0.00930110    0.00002967   -0.02346196
     atom    2 type  1   force =     0.00921669   -0.00004830   -0.02381265
     atom    3 type  1   force =     0.00499147   -0.00052049    0.02285971
     atom    4 type  1   force =    -0.00832710    0.00017528    0.02050775
     atom    5 type  1   force =     0.00329945    0.00022674   -0.03214331
     atom    6 type  2   force =    -0.00621553    0.00001993    0.00388841
     atom    7 type  2   force =    -0.00412207    0.00005671    0.00091338
     atom    8 type  2   force =     0.00417777   -0.00000811    0.00088040
     atom    9 type  2   force =     0.00606428   -0.00000916    0.00375232
     atom   10 type  2   force =    -0.00021583    0.00853468    0.01341694
     atom   11 type  2   force =     0.00043195   -0.00845696    0.01319902

     Total force =     0.063327     Total SCF correction =     0.000001

     Writing output data file ./Cyclopentadiene.save/

     init_run     :      1.64s CPU      1.72s WALL (       1 calls)
     electrons    :     30.75s CPU     31.32s WALL (       1 calls)
     forces       :      1.01s CPU      1.05s WALL (       1 calls)

     Called by init_run:
     wfcinit      :      0.69s CPU      0.70s WALL (       1 calls)
     potinit      :      0.56s CPU      0.61s WALL (       1 calls)
     hinit0       :      0.23s CPU      0.24s WALL (       1 calls)

     Called by electrons:
     c_bands      :     18.19s CPU     18.33s WALL (      17 calls)
     sum_band     :      4.05s CPU      4.08s WALL (      17 calls)
     v_of_rho     :      6.65s CPU      7.03s WALL (      18 calls)
     mix_rho      :      2.03s CPU      2.07s WALL (      17 calls)

     Called by c_bands:
     init_us_2    :      0.26s CPU      0.28s WALL (      35 calls)
     regterg      :     17.85s CPU     17.99s WALL (      17 calls)

     Called by *egterg:
     rdiaghg      :      0.04s CPU      0.04s WALL (      61 calls)
     h_psi        :     15.79s CPU     15.92s WALL (      62 calls)
     g_psi        :      0.04s CPU      0.04s WALL (      44 calls)

     Called by h_psi:
     h_psi:calbec :      1.74s CPU      1.75s WALL (      62 calls)
     vloc_psi     :     12.52s CPU     12.64s WALL (      62 calls)
     add_vuspsi   :      1.43s CPU      1.44s WALL (      62 calls)

     General routines
     calbec       :      1.88s CPU      1.89s WALL (      66 calls)
     fft          :      4.71s CPU      4.80s WALL (     152 calls)
     ffts         :      0.51s CPU      0.51s WALL (      17 calls)
     fftw         :     11.79s CPU     11.89s WALL (     823 calls)

     Parallel routines

     PWSCF        :     33.48s CPU     34.20s WALL


   This run was terminated on:   4:10:46  24May2021            

=------------------------------------------------------------------------------=
   JOB DONE.
=------------------------------------------------------------------------------=
