
     Program PWSCF v.6.7GPU starts on 24May2021 at  7:21:24 

     This program is part of the open-source Quantum ESPRESSO suite
     for quantum simulation of materials; please cite
         "P. Giannozzi et al., J. Phys.:Condens. Matter 21 395502 (2009);
         "P. Giannozzi et al., J. Phys.:Condens. Matter 29 465901 (2017);
         "P. Giannozzi et al., J. Chem. Phys. 152 154105 (2020);
          URL http://www.quantum-espresso.org", 
     in publications or presentations arising from this work. More details at
     http://www.quantum-espresso.org/quote

     Parallel version (MPI), running on     4 processors

     MPI processes distributed on     1 nodes
     R & G space division:  proc/nbgrp/npool/nimage =       4
     Waiting for input...
     Reading input from standard input
     Message from routine read_cards :
     DEPRECATED: no units specified in CELL_PARAMETERS card

     Current dimensions of program PWSCF are:
     Max number of different atomic species (ntypx) = 10
     Max number of k-points (npk) =  40000
     Max angular momentum in pseudopotentials (lmaxx) =  3

     gamma-point specific algorithms are used

     Subspace diagonalization in iterative solution of the eigenvalue problem:
     one sub-group per band group will be used
     scalapack distributed-memory algorithm (size of sub-group:  2*  2 procs)


     Parallelization info
     --------------------
     sticks:   dense  smooth     PW     G-vecs:    dense   smooth      PW
     Min         951     951    236                44375    44375    5524
     Max         954     954    238                44382    44382    5534
     Sum        3809    3809    949               177509   177509   22119

     Using Slab Decomposition



     bravais-lattice index     =            0
     lattice parameter (alat)  =      20.0000  a.u.
     unit-cell volume          =    8000.0000 (a.u.)^3
     number of atoms/cell      =            9
     number of atomic types    =            2
     number of electrons       =        18.00
     number of Kohn-Sham states=            9
     kinetic-energy cutoff     =      30.0000  Ry
     charge density cutoff     =     120.0000  Ry
     scf convergence threshold =      1.0E-12
     mixing beta               =       0.5000
     number of iterations used =            8  plain     mixing
     Exchange-correlation= PBE
                           (   1   4   3   4   0   0   0)

     celldm(1)=  20.000000  celldm(2)=   0.000000  celldm(3)=   0.000000
     celldm(4)=   0.000000  celldm(5)=   0.000000  celldm(6)=   0.000000

     crystal axes: (cart. coord. in units of alat)
               a(1) = (   1.000000   0.000000   0.000000 )  
               a(2) = (   0.000000   1.000000   0.000000 )  
               a(3) = (   0.000000   0.000000   1.000000 )  

     reciprocal axes: (cart. coord. in units 2 pi/alat)
               b(1) = (  1.000000  0.000000  0.000000 )  
               b(2) = (  0.000000  1.000000  0.000000 )  
               b(3) = (  0.000000  0.000000  1.000000 )  


     PseudoPot. # 1 for C  read from file:
     /home/ciga/builds/pseudo_potentials/C.upf
     MD5 check sum: d80ec9912146af6c4c1760317d1f95e9
     Pseudo is Norm-conserving + core correction, Zval =  4.0
     Generated using ONCVPSP code by D. R. Hamann
     Using radial grid of 1248 points,  4 beta functions with: 
                l(1) =   0
                l(2) =   0
                l(3) =   1
                l(4) =   1

     PseudoPot. # 2 for H  read from file:
     /home/ciga/builds/pseudo_potentials/H.upf
     MD5 check sum: 418cee52d0c413ae40802e6cc37ab9e3
     Pseudo is Norm-conserving, Zval =  1.0
     Generated using ONCVPSP code by D. R. Hamann
     Using radial grid of 1166 points,  3 beta functions with: 
                l(1) =   0
                l(2) =   0
                l(3) =   1

     atomic species   valence    mass     pseudopotential
        C              4.00    12.01070     C ( 1.00)
        H              1.00     1.00794     H ( 1.00)

     No symmetry found



   Cartesian axes

     site n.     atom                  positions (alat units)
         1           C   tau(   1) = (   0.0034462   0.0812489  -0.0172208  )
         2           C   tau(   2) = (  -0.0260474  -0.0533169  -0.0567132  )
         3           C   tau(   3) = (   0.0253626  -0.0268239   0.0743467  )
         4           H   tau(   4) = (  -0.0389670  -0.0359377   0.1534024  )
         5           H   tau(   5) = (   0.1214930  -0.0548224   0.0954693  )
         6           H   tau(   6) = (  -0.0752871   0.1439474   0.0012484  )
         7           H   tau(   7) = (   0.0847337   0.1275970  -0.0586375  )
         8           H   tau(   8) = (  -0.1258005  -0.0759317  -0.0597241  )
         9           H   tau(   9) = (   0.0298219  -0.1020343  -0.1272568  )

     number of k points=     1
                       cart. coord. in units 2pi/alat
        k(    1) = (   0.0000000   0.0000000   0.0000000), wk =   2.0000000

     Dense  grid:    88755 G-vectors     FFT dimensions: (  72,  72,  72)

     Estimated max dynamical RAM per process >      21.01 MB

     Estimated total dynamical RAM >      84.05 MB

     Initial potential from superposition of free atoms

     starting charge   17.99981, renormalised to   18.00000

     negative rho (up, down):  8.227E-03 0.000E+00
     Starting wfcs are   18 randomized atomic wfcs

     total cpu time spent up to now is        0.4 secs

     Self-consistent Calculation

     iteration #  1     ecut=    30.00 Ry     beta= 0.50
     Davidson diagonalization with overlap
     ethr =  1.00E-02,  avg # of iterations =  2.0

     negative rho (up, down):  3.954E-03 0.000E+00

     total cpu time spent up to now is        0.6 secs

     total energy              =     -42.63132885 Ry
     estimated scf accuracy    <       0.87334354 Ry

     iteration #  2     ecut=    30.00 Ry     beta= 0.50
     Davidson diagonalization with overlap
     ethr =  4.85E-03,  avg # of iterations =  2.0

     negative rho (up, down):  1.788E-03 0.000E+00

     total cpu time spent up to now is        0.9 secs

     total energy              =     -42.75827340 Ry
     estimated scf accuracy    <       0.07282672 Ry

     iteration #  3     ecut=    30.00 Ry     beta= 0.50
     Davidson diagonalization with overlap
     ethr =  4.05E-04,  avg # of iterations =  1.0

     negative rho (up, down):  1.007E-04 0.000E+00

     total cpu time spent up to now is        1.1 secs

     total energy              =     -42.75442963 Ry
     estimated scf accuracy    <       0.01429731 Ry

     iteration #  4     ecut=    30.00 Ry     beta= 0.50
     Davidson diagonalization with overlap
     ethr =  7.94E-05,  avg # of iterations =  2.0

     negative rho (up, down):  3.537E-05 0.000E+00

     total cpu time spent up to now is        1.3 secs

     total energy              =     -42.75598234 Ry
     estimated scf accuracy    <       0.00185338 Ry

     iteration #  5     ecut=    30.00 Ry     beta= 0.50
     Davidson diagonalization with overlap
     ethr =  1.03E-05,  avg # of iterations =  3.0

     negative rho (up, down):  3.172E-06 0.000E+00

     total cpu time spent up to now is        1.6 secs

     total energy              =     -42.75634835 Ry
     estimated scf accuracy    <       0.00169513 Ry

     iteration #  6     ecut=    30.00 Ry     beta= 0.50
     Davidson diagonalization with overlap
     ethr =  9.42E-06,  avg # of iterations =  2.0

     total cpu time spent up to now is        1.8 secs

     total energy              =     -42.75674331 Ry
     estimated scf accuracy    <       0.00001890 Ry

     iteration #  7     ecut=    30.00 Ry     beta= 0.50
     Davidson diagonalization with overlap
     ethr =  1.05E-07,  avg # of iterations =  2.0

     total cpu time spent up to now is        2.1 secs

     total energy              =     -42.75674564 Ry
     estimated scf accuracy    <       0.00000427 Ry

     iteration #  8     ecut=    30.00 Ry     beta= 0.50
     Davidson diagonalization with overlap
     ethr =  2.37E-08,  avg # of iterations =  2.0

     total cpu time spent up to now is        2.3 secs

     total energy              =     -42.75674634 Ry
     estimated scf accuracy    <       0.00000025 Ry

     iteration #  9     ecut=    30.00 Ry     beta= 0.50
     Davidson diagonalization with overlap
     ethr =  1.41E-09,  avg # of iterations =  2.0

     total cpu time spent up to now is        2.6 secs

     total energy              =     -42.75674622 Ry
     estimated scf accuracy    <       0.00000050 Ry

     iteration # 10     ecut=    30.00 Ry     beta= 0.50
     Davidson diagonalization with overlap
     ethr =  1.41E-09,  avg # of iterations =  2.0

     total cpu time spent up to now is        2.8 secs

     total energy              =     -42.75674622 Ry
     estimated scf accuracy    <       0.00000007 Ry

     iteration # 11     ecut=    30.00 Ry     beta= 0.50
     Davidson diagonalization with overlap
     ethr =  3.65E-10,  avg # of iterations =  2.0

     total cpu time spent up to now is        3.0 secs

     total energy              =     -42.75674624 Ry
     estimated scf accuracy    <          8.9E-09 Ry

     iteration # 12     ecut=    30.00 Ry     beta= 0.50
     Davidson diagonalization with overlap
     ethr =  4.97E-11,  avg # of iterations =  2.0

     total cpu time spent up to now is        3.3 secs

     total energy              =     -42.75674624 Ry
     estimated scf accuracy    <          1.5E-09 Ry

     iteration # 13     ecut=    30.00 Ry     beta= 0.50
     Davidson diagonalization with overlap
     ethr =  8.45E-12,  avg # of iterations =  2.0

     total cpu time spent up to now is        3.5 secs

     total energy              =     -42.75674624 Ry
     estimated scf accuracy    <          5.0E-12 Ry

     iteration # 14     ecut=    30.00 Ry     beta= 0.50
     Davidson diagonalization with overlap
     ethr =  1.00E-13,  avg # of iterations =  2.0

     total cpu time spent up to now is        3.8 secs

     End of self-consistent calculation

          k = 0.0000 0.0000 0.0000 ( 11060 PWs)   bands (ev):

   -20.9920 -14.4358 -14.4264 -11.7592 -11.0489  -8.3541  -8.3428  -6.6941
    -6.6904

     highest occupied level (ev):    -6.6904

!    total energy              =     -42.75674624 Ry
     estimated scf accuracy    <          2.9E-13 Ry

     The total energy is the sum of the following terms:
     one-electron contribution =    -137.56147420 Ry
     hartree contribution      =      70.96769211 Ry
     xc contribution           =     -17.01889514 Ry
     ewald contribution        =      40.85593099 Ry

     convergence has been achieved in  14 iterations

     Forces acting on atoms (cartesian axes, Ry/au):

     atom    1 type  1   force =     0.00453783   -0.03655942    0.00581368
     atom    2 type  1   force =    -0.00407061    0.02562353    0.03096551
     atom    3 type  1   force =    -0.00532297    0.01143236   -0.03392715
     atom    4 type  2   force =    -0.01841365   -0.00350426    0.02162020
     atom    5 type  2   force =     0.02786756   -0.00546615    0.00409135
     atom    6 type  2   force =    -0.02248677    0.01699936    0.00422555
     atom    7 type  2   force =     0.02433136    0.01130277   -0.01040028
     atom    8 type  2   force =    -0.02830682   -0.01079548   -0.00576694
     atom    9 type  2   force =     0.02186407   -0.00903270   -0.01662192

     Total force =     0.096966     Total SCF correction =     0.000001

     Writing output data file ./Cyclopropane.save/

     init_run     :      0.29s CPU      0.31s WALL (       1 calls)
     electrons    :      3.29s CPU      3.40s WALL (       1 calls)
     forces       :      0.20s CPU      0.20s WALL (       1 calls)

     Called by init_run:
     wfcinit      :      0.07s CPU      0.07s WALL (       1 calls)
     potinit      :      0.13s CPU      0.15s WALL (       1 calls)
     hinit0       :      0.06s CPU      0.06s WALL (       1 calls)

     Called by electrons:
     c_bands      :      1.59s CPU      1.60s WALL (      14 calls)
     sum_band     :      0.44s CPU      0.44s WALL (      14 calls)
     v_of_rho     :      1.08s CPU      1.18s WALL (      15 calls)
     mix_rho      :      0.21s CPU      0.22s WALL (      14 calls)

     Called by c_bands:
     init_us_2    :      0.04s CPU      0.04s WALL (      29 calls)
     regterg      :      1.54s CPU      1.55s WALL (      14 calls)

     Called by *egterg:
     rdiaghg      :      0.02s CPU      0.02s WALL (      42 calls)
     h_psi        :      1.43s CPU      1.44s WALL (      43 calls)
     g_psi        :      0.00s CPU      0.00s WALL (      28 calls)

     Called by h_psi:
     h_psi:calbec :      0.17s CPU      0.17s WALL (      43 calls)
     vloc_psi     :      1.12s CPU      1.13s WALL (      43 calls)
     add_vuspsi   :      0.13s CPU      0.13s WALL (      43 calls)

     General routines
     calbec       :      0.19s CPU      0.19s WALL (      47 calls)
     fft          :      0.62s CPU      0.65s WALL (     128 calls)
     ffts         :      0.07s CPU      0.07s WALL (      14 calls)
     fftw         :      1.02s CPU      1.03s WALL (     480 calls)

     Parallel routines

     PWSCF        :      3.86s CPU      4.01s WALL


   This run was terminated on:   7:21:28  24May2021            

=------------------------------------------------------------------------------=
   JOB DONE.
=------------------------------------------------------------------------------=
