
     Program PWSCF v.6.7GPU starts on 24May2021 at  5: 3:26 

     This program is part of the open-source Quantum ESPRESSO suite
     for quantum simulation of materials; please cite
         "P. Giannozzi et al., J. Phys.:Condens. Matter 21 395502 (2009);
         "P. Giannozzi et al., J. Phys.:Condens. Matter 29 465901 (2017);
         "P. Giannozzi et al., J. Chem. Phys. 152 154105 (2020);
          URL http://www.quantum-espresso.org", 
     in publications or presentations arising from this work. More details at
     http://www.quantum-espresso.org/quote

     Parallel version (MPI), running on     4 processors

     MPI processes distributed on     1 nodes
     R & G space division:  proc/nbgrp/npool/nimage =       4
     Waiting for input...
     Reading input from standard input
     Message from routine read_cards :
     DEPRECATED: no units specified in CELL_PARAMETERS card

     Current dimensions of program PWSCF are:
     Max number of different atomic species (ntypx) = 10
     Max number of k-points (npk) =  40000
     Max angular momentum in pseudopotentials (lmaxx) =  3

     gamma-point specific algorithms are used

     Subspace diagonalization in iterative solution of the eigenvalue problem:
     one sub-group per band group will be used
     scalapack distributed-memory algorithm (size of sub-group:  2*  2 procs)


     Parallelization info
     --------------------
     sticks:   dense  smooth     PW     G-vecs:    dense   smooth      PW
     Min        1271    1271    317                68355    68355    8565
     Max        1276    1276    322                68358    68358    8568
     Sum        5097    5097   1281               273425   273425   34265

     Using Slab Decomposition



     bravais-lattice index     =            0
     lattice parameter (alat)  =      20.0000  a.u.
     unit-cell volume          =    8000.0000 (a.u.)^3
     number of atoms/cell      =           16
     number of atomic types    =            2
     number of electrons       =        40.00
     number of Kohn-Sham states=           20
     kinetic-energy cutoff     =      40.0000  Ry
     charge density cutoff     =     160.0000  Ry
     scf convergence threshold =      1.0E-12
     mixing beta               =       0.5000
     number of iterations used =            8  plain     mixing
     Exchange-correlation= PBE
                           (   1   4   3   4   0   0   0)

     celldm(1)=  20.000000  celldm(2)=   0.000000  celldm(3)=   0.000000
     celldm(4)=   0.000000  celldm(5)=   0.000000  celldm(6)=   0.000000

     crystal axes: (cart. coord. in units of alat)
               a(1) = (   1.000000   0.000000   0.000000 )  
               a(2) = (   0.000000   1.000000   0.000000 )  
               a(3) = (   0.000000   0.000000   1.000000 )  

     reciprocal axes: (cart. coord. in units 2 pi/alat)
               b(1) = (  1.000000  0.000000  0.000000 )  
               b(2) = (  0.000000  1.000000  0.000000 )  
               b(3) = (  0.000000  0.000000  1.000000 )  


     PseudoPot. # 1 for C  read from file:
     /home/ciga/builds/pseudo_potentials/C.upf
     MD5 check sum: d80ec9912146af6c4c1760317d1f95e9
     Pseudo is Norm-conserving + core correction, Zval =  4.0
     Generated using ONCVPSP code by D. R. Hamann
     Using radial grid of 1248 points,  4 beta functions with: 
                l(1) =   0
                l(2) =   0
                l(3) =   1
                l(4) =   1

     PseudoPot. # 2 for H  read from file:
     /home/ciga/builds/pseudo_potentials/H.upf
     MD5 check sum: 418cee52d0c413ae40802e6cc37ab9e3
     Pseudo is Norm-conserving, Zval =  1.0
     Generated using ONCVPSP code by D. R. Hamann
     Using radial grid of 1166 points,  3 beta functions with: 
                l(1) =   0
                l(2) =   0
                l(3) =   1

     atomic species   valence    mass     pseudopotential
        C              4.00    12.01070     C ( 1.00)
        H              1.00     1.00794     H ( 1.00)

     No symmetry found



   Cartesian axes

     site n.     atom                  positions (alat units)
         1           C   tau(   1) = (  -0.0248216  -0.1574425   0.0362166  )
         2           C   tau(   2) = (   0.0976138  -0.1266967   0.0361599  )
         3           C   tau(   3) = (  -0.0972925   0.1266778   0.0363300  )
         4           C   tau(   4) = (   0.0248499   0.1574709   0.0362355  )
         5           C   tau(   5) = (  -0.1268384  -0.0970563  -0.0358670  )
         6           C   tau(   6) = (   0.1584535  -0.0248971  -0.0362544  )
         7           C   tau(   7) = (  -0.1591244   0.0247082  -0.0369536  )
         8           C   tau(   8) = (   0.1271313   0.0974343  -0.0361221  )
         9           H   tau(   9) = (  -0.0537627  -0.2408645   0.0912643  )
        10           H   tau(  10) = (   0.1626487  -0.1863270   0.0912360  )
        11           H   tau(  11) = (  -0.1623653   0.1862325   0.0916706  )
        12           H   tau(  12) = (   0.0539139   0.2407606   0.0916328  )
        13           H   tau(  13) = (  -0.1860246  -0.1632251  -0.0904706  )
        14           H   tau(  14) = (   0.2419133  -0.0536493  -0.0911793  )
        15           H   tau(  15) = (  -0.2427259   0.0530163  -0.0917462  )
        16           H   tau(  16) = (   0.1866199   0.1628566  -0.0908297  )

     number of k points=     1
                       cart. coord. in units 2pi/alat
        k(    1) = (   0.0000000   0.0000000   0.0000000), wk =   2.0000000

     Dense  grid:   136713 G-vectors     FFT dimensions: (  81,  81,  81)

     Estimated max dynamical RAM per process >      38.63 MB

     Estimated total dynamical RAM >     154.52 MB

     Initial potential from superposition of free atoms

     starting charge   39.99957, renormalised to   40.00000

     negative rho (up, down):  1.640E-03 0.000E+00
     Starting wfcs are   40 randomized atomic wfcs

     total cpu time spent up to now is        0.8 secs

     Self-consistent Calculation

     iteration #  1     ecut=    40.00 Ry     beta= 0.50
     Davidson diagonalization with overlap
     ethr =  1.00E-02,  avg # of iterations =  2.0

     negative rho (up, down):  7.301E-04 0.000E+00

     total cpu time spent up to now is        1.6 secs

     total energy              =    -105.01722775 Ry
     estimated scf accuracy    <       1.65770152 Ry

     iteration #  2     ecut=    40.00 Ry     beta= 0.50
     Davidson diagonalization with overlap
     ethr =  4.14E-03,  avg # of iterations =  2.0

     negative rho (up, down):  2.715E-04 0.000E+00

     total cpu time spent up to now is        2.4 secs

     total energy              =    -105.21742584 Ry
     estimated scf accuracy    <       0.13702358 Ry

     iteration #  3     ecut=    40.00 Ry     beta= 0.50
     Davidson diagonalization with overlap
     ethr =  3.43E-04,  avg # of iterations =  2.0

     negative rho (up, down):  2.109E-05 0.000E+00

     total cpu time spent up to now is        3.1 secs

     total energy              =    -105.22206387 Ry
     estimated scf accuracy    <       0.01964196 Ry

     iteration #  4     ecut=    40.00 Ry     beta= 0.50
     Davidson diagonalization with overlap
     ethr =  4.91E-05,  avg # of iterations =  2.0

     negative rho (up, down):  8.114E-08 0.000E+00

     total cpu time spent up to now is        3.8 secs

     total energy              =    -105.22465133 Ry
     estimated scf accuracy    <       0.00124749 Ry

     iteration #  5     ecut=    40.00 Ry     beta= 0.50
     Davidson diagonalization with overlap
     ethr =  3.12E-06,  avg # of iterations =  3.0

     negative rho (up, down):  1.412E-08 0.000E+00

     total cpu time spent up to now is        4.7 secs

     total energy              =    -105.22514492 Ry
     estimated scf accuracy    <       0.00038835 Ry

     iteration #  6     ecut=    40.00 Ry     beta= 0.50
     Davidson diagonalization with overlap
     ethr =  9.71E-07,  avg # of iterations =  3.0

     total cpu time spent up to now is        5.5 secs

     total energy              =    -105.22524691 Ry
     estimated scf accuracy    <       0.00001258 Ry

     iteration #  7     ecut=    40.00 Ry     beta= 0.50
     Davidson diagonalization with overlap
     ethr =  3.14E-08,  avg # of iterations =  5.0

     total cpu time spent up to now is        6.6 secs

     total energy              =    -105.22525751 Ry
     estimated scf accuracy    <       0.00000082 Ry

     iteration #  8     ecut=    40.00 Ry     beta= 0.50
     Davidson diagonalization with overlap
     ethr =  2.05E-09,  avg # of iterations =  5.0

     total cpu time spent up to now is        7.4 secs

     total energy              =    -105.22525766 Ry
     estimated scf accuracy    <       0.00000015 Ry

     iteration #  9     ecut=    40.00 Ry     beta= 0.50
     Davidson diagonalization with overlap
     ethr =  3.77E-10,  avg # of iterations =  2.0

     total cpu time spent up to now is        8.1 secs

     total energy              =    -105.22525767 Ry
     estimated scf accuracy    <       0.00000002 Ry

     iteration # 10     ecut=    40.00 Ry     beta= 0.50
     Davidson diagonalization with overlap
     ethr =  6.12E-11,  avg # of iterations =  3.0

     total cpu time spent up to now is        9.0 secs

     total energy              =    -105.22525767 Ry
     estimated scf accuracy    <          5.3E-09 Ry

     iteration # 11     ecut=    40.00 Ry     beta= 0.50
     Davidson diagonalization with overlap
     ethr =  1.31E-11,  avg # of iterations =  4.0

     total cpu time spent up to now is        9.8 secs

     total energy              =    -105.22525768 Ry
     estimated scf accuracy    <          8.0E-10 Ry

     iteration # 12     ecut=    40.00 Ry     beta= 0.50
     Davidson diagonalization with overlap
     ethr =  2.01E-12,  avg # of iterations =  5.0

     total cpu time spent up to now is       10.8 secs

     total energy              =    -105.22525768 Ry
     estimated scf accuracy    <          3.0E-10 Ry

     iteration # 13     ecut=    40.00 Ry     beta= 0.50
     Davidson diagonalization with overlap
     ethr =  7.39E-13,  avg # of iterations =  2.0

     total cpu time spent up to now is       11.5 secs

     total energy              =    -105.22525768 Ry
     estimated scf accuracy    <          3.7E-11 Ry

     iteration # 14     ecut=    40.00 Ry     beta= 0.50
     Davidson diagonalization with overlap
     ethr =  1.00E-13,  avg # of iterations =  7.0

     total cpu time spent up to now is       12.5 secs

     total energy              =    -105.22525768 Ry
     estimated scf accuracy    <          6.2E-11 Ry

     iteration # 15     ecut=    40.00 Ry     beta= 0.50
     Davidson diagonalization with overlap
     ethr =  1.00E-13,  avg # of iterations =  2.0

     total cpu time spent up to now is       13.2 secs

     total energy              =    -105.22525768 Ry
     estimated scf accuracy    <          2.4E-11 Ry

     iteration # 16     ecut=    40.00 Ry     beta= 0.50
     Davidson diagonalization with overlap
     ethr =  1.00E-13,  avg # of iterations =  5.0

     total cpu time spent up to now is       13.9 secs

     End of self-consistent calculation

          k = 0.0000 0.0000 0.0000 ( 17133 PWs)   bands (ev):

   -20.1752 -18.7614 -18.7407 -16.6022 -15.6269 -13.2491 -13.2042 -11.7490
   -10.4146 -10.3935 -10.2960 -10.2935  -9.7048  -8.0318  -7.9894  -7.1847
    -6.8673  -5.9653  -5.9595  -4.5502

     highest occupied level (ev):    -4.5502

!    total energy              =    -105.22525768 Ry
     estimated scf accuracy    <          4.6E-13 Ry

     The total energy is the sum of the following terms:
     one-electron contribution =    -368.84668076 Ry
     hartree contribution      =     189.99081887 Ry
     xc contribution           =     -39.54774218 Ry
     ewald contribution        =     113.17834639 Ry

     convergence has been achieved in  16 iterations

     Forces acting on atoms (cartesian axes, Ry/au):

     atom    1 type  1   force =    -0.01361787   -0.01692307    0.01641923
     atom    2 type  1   force =     0.02126439   -0.00731800    0.01335880
     atom    3 type  1   force =    -0.03384596    0.00280710    0.00796158
     atom    4 type  1   force =     0.02071745    0.02010629    0.01491557
     atom    5 type  1   force =    -0.01168270   -0.02911033   -0.01936889
     atom    6 type  1   force =     0.01594985   -0.01406751   -0.01336857
     atom    7 type  1   force =    -0.00728378    0.02510438   -0.00448039
     atom    8 type  1   force =     0.00685497    0.01900246   -0.01458878
     atom    9 type  2   force =     0.00298494    0.00530688   -0.00486529
     atom   10 type  2   force =    -0.00478215    0.00275000   -0.00500317
     atom   11 type  2   force =     0.00578182   -0.00401927   -0.00529023
     atom   12 type  2   force =    -0.00372797   -0.00631570   -0.00521750
     atom   13 type  2   force =     0.00372207    0.00616416    0.00555281
     atom   14 type  2   force =    -0.00440591    0.00266264    0.00478888
     atom   15 type  2   force =     0.00496830   -0.00171213    0.00465615
     atom   16 type  2   force =    -0.00289744   -0.00443792    0.00452979

     Total force =     0.086704     Total SCF correction =     0.000001

     Writing output data file ./Cyclooctatetraene.save/

     init_run     :      0.68s CPU      0.72s WALL (       1 calls)
     electrons    :     12.91s CPU     13.13s WALL (       1 calls)
     forces       :      0.45s CPU      0.47s WALL (       1 calls)

     Called by init_run:
     wfcinit      :      0.36s CPU      0.37s WALL (       1 calls)
     potinit      :      0.20s CPU      0.23s WALL (       1 calls)
     hinit0       :      0.08s CPU      0.09s WALL (       1 calls)

     Called by electrons:
     c_bands      :      8.99s CPU      9.06s WALL (      16 calls)
     sum_band     :      1.45s CPU      1.46s WALL (      16 calls)
     v_of_rho     :      2.04s CPU      2.19s WALL (      17 calls)
     mix_rho      :      0.48s CPU      0.48s WALL (      16 calls)

     Called by c_bands:
     init_us_2    :      0.12s CPU      0.12s WALL (      33 calls)
     regterg      :      8.83s CPU      8.90s WALL (      16 calls)

     Called by *egterg:
     rdiaghg      :      0.07s CPU      0.07s WALL (      70 calls)
     h_psi        :      7.53s CPU      7.59s WALL (      71 calls)
     g_psi        :      0.02s CPU      0.02s WALL (      54 calls)

     Called by h_psi:
     h_psi:calbec :      1.30s CPU      1.31s WALL (      71 calls)
     vloc_psi     :      5.18s CPU      5.24s WALL (      71 calls)
     add_vuspsi   :      1.00s CPU      1.00s WALL (      71 calls)

     General routines
     calbec       :      1.41s CPU      1.41s WALL (      75 calls)
     fft          :      1.35s CPU      1.38s WALL (     144 calls)
     ffts         :      0.16s CPU      0.16s WALL (      16 calls)
     fftw         :      4.85s CPU      4.91s WALL (    1146 calls)

     Parallel routines

     PWSCF        :     14.11s CPU     14.40s WALL


   This run was terminated on:   5: 3:41  24May2021            

=------------------------------------------------------------------------------=
   JOB DONE.
=------------------------------------------------------------------------------=
