
     Program PWSCF v.6.7GPU starts on 24May2021 at  5: 6:34 

     This program is part of the open-source Quantum ESPRESSO suite
     for quantum simulation of materials; please cite
         "P. Giannozzi et al., J. Phys.:Condens. Matter 21 395502 (2009);
         "P. Giannozzi et al., J. Phys.:Condens. Matter 29 465901 (2017);
         "P. Giannozzi et al., J. Chem. Phys. 152 154105 (2020);
          URL http://www.quantum-espresso.org", 
     in publications or presentations arising from this work. More details at
     http://www.quantum-espresso.org/quote

     Parallel version (MPI), running on     4 processors

     MPI processes distributed on     1 nodes
     R & G space division:  proc/nbgrp/npool/nimage =       4
     Waiting for input...
     Reading input from standard input
     Message from routine read_cards :
     DEPRECATED: no units specified in CELL_PARAMETERS card

     Current dimensions of program PWSCF are:
     Max number of different atomic species (ntypx) = 10
     Max number of k-points (npk) =  40000
     Max angular momentum in pseudopotentials (lmaxx) =  3

     gamma-point specific algorithms are used

     Subspace diagonalization in iterative solution of the eigenvalue problem:
     one sub-group per band group will be used
     scalapack distributed-memory algorithm (size of sub-group:  2*  2 procs)


     Parallelization info
     --------------------
     sticks:   dense  smooth     PW     G-vecs:    dense   smooth      PW
     Min        2386    2386    595               175366   175366   21912
     Max        2388    2388    598               175372   175372   21918
     Sum        9549    9549   2385               701475   701475   87655

     Using Slab Decomposition



     bravais-lattice index     =            0
     lattice parameter (alat)  =      20.0000  a.u.
     unit-cell volume          =    8000.0000 (a.u.)^3
     number of atoms/cell      =           16
     number of atomic types    =            2
     number of electrons       =        40.00
     number of Kohn-Sham states=           20
     kinetic-energy cutoff     =      75.0000  Ry
     charge density cutoff     =     300.0000  Ry
     scf convergence threshold =      1.0E-12
     mixing beta               =       0.5000
     number of iterations used =            8  plain     mixing
     Exchange-correlation= PBE
                           (   1   4   3   4   0   0   0)

     celldm(1)=  20.000000  celldm(2)=   0.000000  celldm(3)=   0.000000
     celldm(4)=   0.000000  celldm(5)=   0.000000  celldm(6)=   0.000000

     crystal axes: (cart. coord. in units of alat)
               a(1) = (   1.000000   0.000000   0.000000 )  
               a(2) = (   0.000000   1.000000   0.000000 )  
               a(3) = (   0.000000   0.000000   1.000000 )  

     reciprocal axes: (cart. coord. in units 2 pi/alat)
               b(1) = (  1.000000  0.000000  0.000000 )  
               b(2) = (  0.000000  1.000000  0.000000 )  
               b(3) = (  0.000000  0.000000  1.000000 )  


     PseudoPot. # 1 for C  read from file:
     /home/ciga/builds/pseudo_potentials/C.upf
     MD5 check sum: d80ec9912146af6c4c1760317d1f95e9
     Pseudo is Norm-conserving + core correction, Zval =  4.0
     Generated using ONCVPSP code by D. R. Hamann
     Using radial grid of 1248 points,  4 beta functions with: 
                l(1) =   0
                l(2) =   0
                l(3) =   1
                l(4) =   1

     PseudoPot. # 2 for H  read from file:
     /home/ciga/builds/pseudo_potentials/H.upf
     MD5 check sum: 418cee52d0c413ae40802e6cc37ab9e3
     Pseudo is Norm-conserving, Zval =  1.0
     Generated using ONCVPSP code by D. R. Hamann
     Using radial grid of 1166 points,  3 beta functions with: 
                l(1) =   0
                l(2) =   0
                l(3) =   1

     atomic species   valence    mass     pseudopotential
        C              4.00    12.01070     C ( 1.00)
        H              1.00     1.00794     H ( 1.00)

     No symmetry found



   Cartesian axes

     site n.     atom                  positions (alat units)
         1           C   tau(   1) = (  -0.0248216  -0.1574425   0.0362166  )
         2           C   tau(   2) = (   0.0976138  -0.1266967   0.0361599  )
         3           C   tau(   3) = (  -0.0972925   0.1266778   0.0363300  )
         4           C   tau(   4) = (   0.0248499   0.1574709   0.0362355  )
         5           C   tau(   5) = (  -0.1268384  -0.0970563  -0.0358670  )
         6           C   tau(   6) = (   0.1584535  -0.0248971  -0.0362544  )
         7           C   tau(   7) = (  -0.1591244   0.0247082  -0.0369536  )
         8           C   tau(   8) = (   0.1271313   0.0974343  -0.0361221  )
         9           H   tau(   9) = (  -0.0537627  -0.2408645   0.0912643  )
        10           H   tau(  10) = (   0.1626487  -0.1863270   0.0912360  )
        11           H   tau(  11) = (  -0.1623653   0.1862325   0.0916706  )
        12           H   tau(  12) = (   0.0539139   0.2407606   0.0916328  )
        13           H   tau(  13) = (  -0.1860246  -0.1632251  -0.0904706  )
        14           H   tau(  14) = (   0.2419133  -0.0536493  -0.0911793  )
        15           H   tau(  15) = (  -0.2427259   0.0530163  -0.0917462  )
        16           H   tau(  16) = (   0.1866199   0.1628566  -0.0908297  )

     number of k points=     1
                       cart. coord. in units 2pi/alat
        k(    1) = (   0.0000000   0.0000000   0.0000000), wk =   2.0000000

     Dense  grid:   350738 G-vectors     FFT dimensions: ( 120, 120, 120)

     Estimated max dynamical RAM per process >     103.77 MB

     Estimated total dynamical RAM >     415.09 MB

     Initial potential from superposition of free atoms

     starting charge   39.99957, renormalised to   40.00000

     negative rho (up, down):  7.097E-05 0.000E+00
     Starting wfcs are   40 randomized atomic wfcs

     total cpu time spent up to now is        2.1 secs

     Self-consistent Calculation

     iteration #  1     ecut=    75.00 Ry     beta= 0.50
     Davidson diagonalization with overlap
     ethr =  1.00E-02,  avg # of iterations =  2.0

     negative rho (up, down):  1.744E-05 0.000E+00

     total cpu time spent up to now is        4.6 secs

     total energy              =    -105.35116686 Ry
     estimated scf accuracy    <       1.78777609 Ry

     iteration #  2     ecut=    75.00 Ry     beta= 0.50
     Davidson diagonalization with overlap
     ethr =  4.47E-03,  avg # of iterations =  2.0

     negative rho (up, down):  5.366E-06 0.000E+00

     total cpu time spent up to now is        6.9 secs

     total energy              =    -105.57921065 Ry
     estimated scf accuracy    <       0.13968321 Ry

     iteration #  3     ecut=    75.00 Ry     beta= 0.50
     Davidson diagonalization with overlap
     ethr =  3.49E-04,  avg # of iterations =  2.0

     negative rho (up, down):  4.603E-07 0.000E+00

     total cpu time spent up to now is        9.0 secs

     total energy              =    -105.58502646 Ry
     estimated scf accuracy    <       0.02058701 Ry

     iteration #  4     ecut=    75.00 Ry     beta= 0.50
     Davidson diagonalization with overlap
     ethr =  5.15E-05,  avg # of iterations =  2.0

     total cpu time spent up to now is       11.5 secs

     total energy              =    -105.58792849 Ry
     estimated scf accuracy    <       0.00130762 Ry

     iteration #  5     ecut=    75.00 Ry     beta= 0.50
     Davidson diagonalization with overlap
     ethr =  3.27E-06,  avg # of iterations =  3.0

     total cpu time spent up to now is       14.2 secs

     total energy              =    -105.58849249 Ry
     estimated scf accuracy    <       0.00045308 Ry

     iteration #  6     ecut=    75.00 Ry     beta= 0.50
     Davidson diagonalization with overlap
     ethr =  1.13E-06,  avg # of iterations =  4.0

     total cpu time spent up to now is       16.7 secs

     total energy              =    -105.58860470 Ry
     estimated scf accuracy    <       0.00001546 Ry

     iteration #  7     ecut=    75.00 Ry     beta= 0.50
     Davidson diagonalization with overlap
     ethr =  3.86E-08,  avg # of iterations =  5.0

     total cpu time spent up to now is       20.1 secs

     total energy              =    -105.58861691 Ry
     estimated scf accuracy    <       0.00000234 Ry

     iteration #  8     ecut=    75.00 Ry     beta= 0.50
     Davidson diagonalization with overlap
     ethr =  5.84E-09,  avg # of iterations =  4.0

     total cpu time spent up to now is       22.6 secs

     total energy              =    -105.58861733 Ry
     estimated scf accuracy    <       0.00000028 Ry

     iteration #  9     ecut=    75.00 Ry     beta= 0.50
     Davidson diagonalization with overlap
     ethr =  7.12E-10,  avg # of iterations =  2.0

     total cpu time spent up to now is       24.8 secs

     total energy              =    -105.58861730 Ry
     estimated scf accuracy    <       0.00000012 Ry

     iteration # 10     ecut=    75.00 Ry     beta= 0.50
     Davidson diagonalization with overlap
     ethr =  2.98E-10,  avg # of iterations =  2.0

     total cpu time spent up to now is       27.3 secs

     total energy              =    -105.58861733 Ry
     estimated scf accuracy    <       0.00000002 Ry

     iteration # 11     ecut=    75.00 Ry     beta= 0.50
     Davidson diagonalization with overlap
     ethr =  5.87E-11,  avg # of iterations =  2.0

     total cpu time spent up to now is       29.6 secs

     total energy              =    -105.58861733 Ry
     estimated scf accuracy    <          1.2E-09 Ry

     iteration # 12     ecut=    75.00 Ry     beta= 0.50
     Davidson diagonalization with overlap
     ethr =  3.10E-12,  avg # of iterations =  6.0

     total cpu time spent up to now is       33.0 secs

     total energy              =    -105.58861733 Ry
     estimated scf accuracy    <          2.7E-09 Ry

     iteration # 13     ecut=    75.00 Ry     beta= 0.50
     Davidson diagonalization with overlap
     ethr =  3.10E-12,  avg # of iterations =  5.0

     total cpu time spent up to now is       35.6 secs

     total energy              =    -105.58861733 Ry
     estimated scf accuracy    <          5.4E-11 Ry

     iteration # 14     ecut=    75.00 Ry     beta= 0.50
     Davidson diagonalization with overlap
     ethr =  1.35E-13,  avg # of iterations =  5.0

     total cpu time spent up to now is       38.7 secs

     total energy              =    -105.58861733 Ry
     estimated scf accuracy    <          1.5E-11 Ry

     iteration # 15     ecut=    75.00 Ry     beta= 0.50
     Davidson diagonalization with overlap
     ethr =  1.00E-13,  avg # of iterations =  2.0

     total cpu time spent up to now is       40.7 secs

     total energy              =    -105.58861733 Ry
     estimated scf accuracy    <          1.2E-12 Ry

     iteration # 16     ecut=    75.00 Ry     beta= 0.50
     Davidson diagonalization with overlap
     ethr =  1.00E-13,  avg # of iterations =  1.0

     total cpu time spent up to now is       42.5 secs

     End of self-consistent calculation

          k = 0.0000 0.0000 0.0000 ( 43828 PWs)   bands (ev):

   -20.0619 -18.6535 -18.6331 -16.5169 -15.5454 -13.2028 -13.1577 -11.7370
   -10.4171 -10.3969 -10.3118 -10.2688  -9.7122  -8.0529  -8.0100  -7.1996
    -6.8766  -5.9737  -5.9679  -4.5688

     highest occupied level (ev):    -4.5688

!    total energy              =    -105.58861733 Ry
     estimated scf accuracy    <          2.7E-13 Ry

     The total energy is the sum of the following terms:
     one-electron contribution =    -369.48380508 Ry
     hartree contribution      =     190.39202481 Ry
     xc contribution           =     -39.67518334 Ry
     ewald contribution        =     113.17834627 Ry

     convergence has been achieved in  16 iterations

     Forces acting on atoms (cartesian axes, Ry/au):

     atom    1 type  1   force =    -0.01973425   -0.00932422    0.00864659
     atom    2 type  1   force =     0.02354556    0.00198577    0.00559861
     atom    3 type  1   force =    -0.03645047   -0.00658373    0.00011802
     atom    4 type  1   force =     0.02716392    0.01259580    0.00712778
     atom    5 type  1   force =    -0.00244380   -0.03149861   -0.01168224
     atom    6 type  1   force =     0.00822671   -0.02013764   -0.00552830
     atom    7 type  1   force =     0.00049853    0.03142717    0.00342308
     atom    8 type  1   force =    -0.00242797    0.02114332   -0.00686083
     atom    9 type  2   force =     0.00317320    0.00579950   -0.00526712
     atom   10 type  2   force =    -0.00530073    0.00313650   -0.00541829
     atom   11 type  2   force =     0.00628957   -0.00437648   -0.00568487
     atom   12 type  2   force =    -0.00389910   -0.00678476   -0.00561369
     atom   13 type  2   force =     0.00408904    0.00665374    0.00595771
     atom   14 type  2   force =    -0.00490469    0.00286067    0.00519253
     atom   15 type  2   force =     0.00545702   -0.00193527    0.00504448
     atom   16 type  2   force =    -0.00328255   -0.00496176    0.00494653

     Total force =     0.084825     Total SCF correction =     0.000001

     Writing output data file ./Cyclooctatetraene.save/

     init_run     :      1.95s CPU      2.03s WALL (       1 calls)
     electrons    :     39.76s CPU     40.45s WALL (       1 calls)
     forces       :      1.19s CPU      1.22s WALL (       1 calls)

     Called by init_run:
     wfcinit      :      1.10s CPU      1.12s WALL (       1 calls)
     potinit      :      0.54s CPU      0.58s WALL (       1 calls)
     hinit0       :      0.19s CPU      0.21s WALL (       1 calls)

     Called by electrons:
     c_bands      :     27.42s CPU     27.63s WALL (      16 calls)
     sum_band     :      4.68s CPU      4.71s WALL (      16 calls)
     v_of_rho     :      6.19s CPU      6.65s WALL (      17 calls)
     mix_rho      :      1.66s CPU      1.67s WALL (      16 calls)

     Called by c_bands:
     init_us_2    :      0.30s CPU      0.31s WALL (      33 calls)
     regterg      :     27.03s CPU     27.23s WALL (      16 calls)

     Called by *egterg:
     rdiaghg      :      0.07s CPU      0.07s WALL (      65 calls)
     h_psi        :     23.04s CPU     23.22s WALL (      66 calls)
     g_psi        :      0.05s CPU      0.06s WALL (      49 calls)

     Called by h_psi:
     h_psi:calbec :      3.25s CPU      3.26s WALL (      66 calls)
     vloc_psi     :     16.98s CPU     17.14s WALL (      66 calls)
     add_vuspsi   :      2.69s CPU      2.70s WALL (      66 calls)

     General routines
     calbec       :      3.52s CPU      3.53s WALL (      70 calls)
     fft          :      4.12s CPU      4.21s WALL (     144 calls)
     ffts         :      0.45s CPU      0.45s WALL (      16 calls)
     fftw         :     15.96s CPU     16.09s WALL (    1158 calls)

     Parallel routines

     PWSCF        :     42.97s CPU     43.80s WALL


   This run was terminated on:   5: 7:18  24May2021            

=------------------------------------------------------------------------------=
   JOB DONE.
=------------------------------------------------------------------------------=
