
     Program PWSCF v.6.7GPU starts on 24May2021 at  7:24:31 

     This program is part of the open-source Quantum ESPRESSO suite
     for quantum simulation of materials; please cite
         "P. Giannozzi et al., J. Phys.:Condens. Matter 21 395502 (2009);
         "P. Giannozzi et al., J. Phys.:Condens. Matter 29 465901 (2017);
         "P. Giannozzi et al., J. Chem. Phys. 152 154105 (2020);
          URL http://www.quantum-espresso.org", 
     in publications or presentations arising from this work. More details at
     http://www.quantum-espresso.org/quote

     Parallel version (MPI), running on     4 processors

     MPI processes distributed on     1 nodes
     R & G space division:  proc/nbgrp/npool/nimage =       4
     Waiting for input...
     Reading input from standard input
     Message from routine read_cards :
     DEPRECATED: no units specified in CELL_PARAMETERS card

     Current dimensions of program PWSCF are:
     Max number of different atomic species (ntypx) = 10
     Max number of k-points (npk) =  40000
     Max angular momentum in pseudopotentials (lmaxx) =  3

     gamma-point specific algorithms are used

     Subspace diagonalization in iterative solution of the eigenvalue problem:
     one sub-group per band group will be used
     scalapack distributed-memory algorithm (size of sub-group:  2*  2 procs)


     Parallelization info
     --------------------
     sticks:   dense  smooth     PW     G-vecs:    dense   smooth      PW
     Min        2862    2862    716               230578   230578   28824
     Max        2863    2863    718               230586   230586   28830
     Sum       11449   11449   2869               922329   922329  115313

     Using Slab Decomposition



     bravais-lattice index     =            0
     lattice parameter (alat)  =      20.0000  a.u.
     unit-cell volume          =    8000.0000 (a.u.)^3
     number of atoms/cell      =            9
     number of atomic types    =            2
     number of electrons       =        18.00
     number of Kohn-Sham states=            9
     kinetic-energy cutoff     =      90.0000  Ry
     charge density cutoff     =     360.0000  Ry
     scf convergence threshold =      1.0E-12
     mixing beta               =       0.5000
     number of iterations used =            8  plain     mixing
     Exchange-correlation= PBE
                           (   1   4   3   4   0   0   0)

     celldm(1)=  20.000000  celldm(2)=   0.000000  celldm(3)=   0.000000
     celldm(4)=   0.000000  celldm(5)=   0.000000  celldm(6)=   0.000000

     crystal axes: (cart. coord. in units of alat)
               a(1) = (   1.000000   0.000000   0.000000 )  
               a(2) = (   0.000000   1.000000   0.000000 )  
               a(3) = (   0.000000   0.000000   1.000000 )  

     reciprocal axes: (cart. coord. in units 2 pi/alat)
               b(1) = (  1.000000  0.000000  0.000000 )  
               b(2) = (  0.000000  1.000000  0.000000 )  
               b(3) = (  0.000000  0.000000  1.000000 )  


     PseudoPot. # 1 for C  read from file:
     /home/ciga/builds/pseudo_potentials/C.upf
     MD5 check sum: d80ec9912146af6c4c1760317d1f95e9
     Pseudo is Norm-conserving + core correction, Zval =  4.0
     Generated using ONCVPSP code by D. R. Hamann
     Using radial grid of 1248 points,  4 beta functions with: 
                l(1) =   0
                l(2) =   0
                l(3) =   1
                l(4) =   1

     PseudoPot. # 2 for H  read from file:
     /home/ciga/builds/pseudo_potentials/H.upf
     MD5 check sum: 418cee52d0c413ae40802e6cc37ab9e3
     Pseudo is Norm-conserving, Zval =  1.0
     Generated using ONCVPSP code by D. R. Hamann
     Using radial grid of 1166 points,  3 beta functions with: 
                l(1) =   0
                l(2) =   0
                l(3) =   1

     atomic species   valence    mass     pseudopotential
        C              4.00    12.01070     C ( 1.00)
        H              1.00     1.00794     H ( 1.00)

     No symmetry found



   Cartesian axes

     site n.     atom                  positions (alat units)
         1           C   tau(   1) = (   0.0034462   0.0812489  -0.0172208  )
         2           C   tau(   2) = (  -0.0260474  -0.0533169  -0.0567132  )
         3           C   tau(   3) = (   0.0253626  -0.0268239   0.0743467  )
         4           H   tau(   4) = (  -0.0389670  -0.0359377   0.1534024  )
         5           H   tau(   5) = (   0.1214930  -0.0548224   0.0954693  )
         6           H   tau(   6) = (  -0.0752871   0.1439474   0.0012484  )
         7           H   tau(   7) = (   0.0847337   0.1275970  -0.0586375  )
         8           H   tau(   8) = (  -0.1258005  -0.0759317  -0.0597241  )
         9           H   tau(   9) = (   0.0298219  -0.1020343  -0.1272568  )

     number of k points=     1
                       cart. coord. in units 2pi/alat
        k(    1) = (   0.0000000   0.0000000   0.0000000), wk =   2.0000000

     Dense  grid:   461165 G-vectors     FFT dimensions: ( 125, 125, 125)

     Estimated max dynamical RAM per process >     108.45 MB

     Estimated total dynamical RAM >     433.79 MB

     Initial potential from superposition of free atoms

     starting charge   17.99981, renormalised to   18.00000

     negative rho (up, down):  1.340E-05 0.000E+00
     Starting wfcs are   18 randomized atomic wfcs

     total cpu time spent up to now is        1.7 secs

     Self-consistent Calculation

     iteration #  1     ecut=    90.00 Ry     beta= 0.50
     Davidson diagonalization with overlap
     ethr =  1.00E-02,  avg # of iterations =  2.0

     negative rho (up, down):  1.126E-06 0.000E+00

     total cpu time spent up to now is        3.4 secs

     total energy              =     -42.99027361 Ry
     estimated scf accuracy    <       1.07647107 Ry

     iteration #  2     ecut=    90.00 Ry     beta= 0.50
     Davidson diagonalization with overlap
     ethr =  5.98E-03,  avg # of iterations =  2.0

     negative rho (up, down):  2.558E-07 0.000E+00

     total cpu time spent up to now is        5.0 secs

     total energy              =     -43.17524321 Ry
     estimated scf accuracy    <       0.07839823 Ry

     iteration #  3     ecut=    90.00 Ry     beta= 0.50
     Davidson diagonalization with overlap
     ethr =  4.36E-04,  avg # of iterations =  1.0

     total cpu time spent up to now is        6.3 secs

     total energy              =     -43.17089836 Ry
     estimated scf accuracy    <       0.01715325 Ry

     iteration #  4     ecut=    90.00 Ry     beta= 0.50
     Davidson diagonalization with overlap
     ethr =  9.53E-05,  avg # of iterations =  2.0

     total cpu time spent up to now is        8.0 secs

     total energy              =     -43.17290732 Ry
     estimated scf accuracy    <       0.00305421 Ry

     iteration #  5     ecut=    90.00 Ry     beta= 0.50
     Davidson diagonalization with overlap
     ethr =  1.70E-05,  avg # of iterations =  3.0

     total cpu time spent up to now is        9.7 secs

     total energy              =     -43.17346994 Ry
     estimated scf accuracy    <       0.00300876 Ry

     iteration #  6     ecut=    90.00 Ry     beta= 0.50
     Davidson diagonalization with overlap
     ethr =  1.67E-05,  avg # of iterations =  2.0

     total cpu time spent up to now is       11.4 secs

     total energy              =     -43.17415988 Ry
     estimated scf accuracy    <       0.00002144 Ry

     iteration #  7     ecut=    90.00 Ry     beta= 0.50
     Davidson diagonalization with overlap
     ethr =  1.19E-07,  avg # of iterations =  3.0

     total cpu time spent up to now is       13.2 secs

     total energy              =     -43.17416453 Ry
     estimated scf accuracy    <       0.00001023 Ry

     iteration #  8     ecut=    90.00 Ry     beta= 0.50
     Davidson diagonalization with overlap
     ethr =  5.68E-08,  avg # of iterations =  2.0

     total cpu time spent up to now is       14.9 secs

     total energy              =     -43.17416627 Ry
     estimated scf accuracy    <       0.00000063 Ry

     iteration #  9     ecut=    90.00 Ry     beta= 0.50
     Davidson diagonalization with overlap
     ethr =  3.50E-09,  avg # of iterations =  2.0

     total cpu time spent up to now is       16.6 secs

     total energy              =     -43.17416633 Ry
     estimated scf accuracy    <       0.00000101 Ry

     iteration # 10     ecut=    90.00 Ry     beta= 0.50
     Davidson diagonalization with overlap
     ethr =  3.50E-09,  avg # of iterations =  1.0

     total cpu time spent up to now is       18.0 secs

     total energy              =     -43.17416610 Ry
     estimated scf accuracy    <       0.00000041 Ry

     iteration # 11     ecut=    90.00 Ry     beta= 0.50
     Davidson diagonalization with overlap
     ethr =  2.26E-09,  avg # of iterations =  2.0

     total cpu time spent up to now is       19.7 secs

     total energy              =     -43.17416624 Ry
     estimated scf accuracy    <       0.00000002 Ry

     iteration # 12     ecut=    90.00 Ry     beta= 0.50
     Davidson diagonalization with overlap
     ethr =  1.35E-10,  avg # of iterations =  2.0

     total cpu time spent up to now is       21.3 secs

     total energy              =     -43.17416624 Ry
     estimated scf accuracy    <          8.5E-09 Ry

     iteration # 13     ecut=    90.00 Ry     beta= 0.50
     Davidson diagonalization with overlap
     ethr =  4.74E-11,  avg # of iterations =  2.0

     total cpu time spent up to now is       22.8 secs

     total energy              =     -43.17416624 Ry
     estimated scf accuracy    <          1.4E-09 Ry

     iteration # 14     ecut=    90.00 Ry     beta= 0.50
     Davidson diagonalization with overlap
     ethr =  7.52E-12,  avg # of iterations =  2.0

     total cpu time spent up to now is       24.5 secs

     total energy              =     -43.17416624 Ry
     estimated scf accuracy    <          6.4E-11 Ry

     iteration # 15     ecut=    90.00 Ry     beta= 0.50
     Davidson diagonalization with overlap
     ethr =  3.56E-13,  avg # of iterations =  3.0

     total cpu time spent up to now is       26.4 secs

     total energy              =     -43.17416624 Ry
     estimated scf accuracy    <          2.3E-10 Ry

     iteration # 16     ecut=    90.00 Ry     beta= 0.50
     Davidson diagonalization with overlap
     ethr =  3.56E-13,  avg # of iterations =  2.0

     total cpu time spent up to now is       28.1 secs

     total energy              =     -43.17416624 Ry
     estimated scf accuracy    <          9.5E-12 Ry

     iteration # 17     ecut=    90.00 Ry     beta= 0.50
     Davidson diagonalization with overlap
     ethr =  1.00E-13,  avg # of iterations =  2.0

     total cpu time spent up to now is       29.8 secs

     total energy              =     -43.17416624 Ry
     estimated scf accuracy    <          1.5E-12 Ry

     iteration # 18     ecut=    90.00 Ry     beta= 0.50
     Davidson diagonalization with overlap
     ethr =  1.00E-13,  avg # of iterations =  1.0

     total cpu time spent up to now is       31.1 secs

     End of self-consistent calculation

          k = 0.0000 0.0000 0.0000 ( 57657 PWs)   bands (ev):

   -20.7264 -14.2959 -14.2876 -11.7231 -11.0761  -8.3698  -8.3590  -6.7396
    -6.7363

     highest occupied level (ev):    -6.7363

!    total energy              =     -43.17416624 Ry
     estimated scf accuracy    <          1.7E-13 Ry

     The total energy is the sum of the following terms:
     one-electron contribution =    -138.30692492 Ry
     hartree contribution      =      71.42666790 Ry
     xc contribution           =     -17.14984022 Ry
     ewald contribution        =      40.85593101 Ry

     convergence has been achieved in  18 iterations

     Forces acting on atoms (cartesian axes, Ry/au):

     atom    1 type  1   force =     0.00549666   -0.01795742    0.00195300
     atom    2 type  1   force =    -0.01218832    0.01390561    0.01861989
     atom    3 type  1   force =    -0.00044193    0.00472723   -0.01726777
     atom    4 type  2   force =    -0.00430398   -0.00127436    0.00421776
     atom    5 type  2   force =     0.00697097    0.00064006   -0.00062675
     atom    6 type  2   force =    -0.00538408    0.00296463    0.00017992
     atom    7 type  2   force =     0.00664178    0.00092108   -0.00143441
     atom    8 type  2   force =    -0.00641813   -0.00575749   -0.00506778
     atom    9 type  2   force =     0.00962703    0.00183066   -0.00057386

     Total force =     0.041646     Total SCF correction =     0.000001

     Writing output data file ./Cyclopropane.save/

     init_run     :      1.51s CPU      1.64s WALL (       1 calls)
     electrons    :     28.76s CPU     29.38s WALL (       1 calls)
     forces       :      1.00s CPU      1.03s WALL (       1 calls)

     Called by init_run:
     wfcinit      :      0.54s CPU      0.54s WALL (       1 calls)
     potinit      :      0.57s CPU      0.67s WALL (       1 calls)
     hinit0       :      0.21s CPU      0.23s WALL (       1 calls)

     Called by electrons:
     c_bands      :     14.61s CPU     14.70s WALL (      18 calls)
     sum_band     :      4.02s CPU      4.04s WALL (      18 calls)
     v_of_rho     :      7.86s CPU      8.41s WALL (      19 calls)
     mix_rho      :      2.42s CPU      2.45s WALL (      18 calls)

     Called by c_bands:
     init_us_2    :      0.26s CPU      0.26s WALL (      37 calls)
     regterg      :     14.29s CPU     14.39s WALL (      18 calls)

     Called by *egterg:
     rdiaghg      :      0.03s CPU      0.03s WALL (      54 calls)
     h_psi        :     13.27s CPU     13.36s WALL (      55 calls)
     g_psi        :      0.03s CPU      0.03s WALL (      36 calls)

     Called by h_psi:
     h_psi:calbec :      1.07s CPU      1.07s WALL (      55 calls)
     vloc_psi     :     11.26s CPU     11.34s WALL (      55 calls)
     add_vuspsi   :      0.87s CPU      0.87s WALL (      55 calls)

     General routines
     calbec       :      1.15s CPU      1.15s WALL (      59 calls)
     fft          :      5.63s CPU      5.76s WALL (     160 calls)
     ffts         :      0.63s CPU      0.64s WALL (      18 calls)
     fftw         :     10.80s CPU     10.87s WALL (     604 calls)

     Parallel routines

     PWSCF        :     31.35s CPU     32.17s WALL


   This run was terminated on:   7:25: 3  24May2021            

=------------------------------------------------------------------------------=
   JOB DONE.
=------------------------------------------------------------------------------=
