
     Program PWSCF v.6.7GPU starts on 24May2021 at  7:22:51 

     This program is part of the open-source Quantum ESPRESSO suite
     for quantum simulation of materials; please cite
         "P. Giannozzi et al., J. Phys.:Condens. Matter 21 395502 (2009);
         "P. Giannozzi et al., J. Phys.:Condens. Matter 29 465901 (2017);
         "P. Giannozzi et al., J. Chem. Phys. 152 154105 (2020);
          URL http://www.quantum-espresso.org", 
     in publications or presentations arising from this work. More details at
     http://www.quantum-espresso.org/quote

     Parallel version (MPI), running on     4 processors

     MPI processes distributed on     1 nodes
     R & G space division:  proc/nbgrp/npool/nimage =       4
     Waiting for input...
     Reading input from standard input
     Message from routine read_cards :
     DEPRECATED: no units specified in CELL_PARAMETERS card

     Current dimensions of program PWSCF are:
     Max number of different atomic species (ntypx) = 10
     Max number of k-points (npk) =  40000
     Max angular momentum in pseudopotentials (lmaxx) =  3

     gamma-point specific algorithms are used

     Subspace diagonalization in iterative solution of the eigenvalue problem:
     one sub-group per band group will be used
     scalapack distributed-memory algorithm (size of sub-group:  2*  2 procs)


     Parallelization info
     --------------------
     sticks:   dense  smooth     PW     G-vecs:    dense   smooth      PW
     Min        2230    2230    557               158211   158211   19778
     Max        2234    2234    560               158214   158214   19781
     Sum        8929    8929   2233               632851   632851   79117

     Using Slab Decomposition



     bravais-lattice index     =            0
     lattice parameter (alat)  =      20.0000  a.u.
     unit-cell volume          =    8000.0000 (a.u.)^3
     number of atoms/cell      =            9
     number of atomic types    =            2
     number of electrons       =        18.00
     number of Kohn-Sham states=            9
     kinetic-energy cutoff     =      70.0000  Ry
     charge density cutoff     =     280.0000  Ry
     scf convergence threshold =      1.0E-12
     mixing beta               =       0.5000
     number of iterations used =            8  plain     mixing
     Exchange-correlation= PBE
                           (   1   4   3   4   0   0   0)

     celldm(1)=  20.000000  celldm(2)=   0.000000  celldm(3)=   0.000000
     celldm(4)=   0.000000  celldm(5)=   0.000000  celldm(6)=   0.000000

     crystal axes: (cart. coord. in units of alat)
               a(1) = (   1.000000   0.000000   0.000000 )  
               a(2) = (   0.000000   1.000000   0.000000 )  
               a(3) = (   0.000000   0.000000   1.000000 )  

     reciprocal axes: (cart. coord. in units 2 pi/alat)
               b(1) = (  1.000000  0.000000  0.000000 )  
               b(2) = (  0.000000  1.000000  0.000000 )  
               b(3) = (  0.000000  0.000000  1.000000 )  


     PseudoPot. # 1 for C  read from file:
     /home/ciga/builds/pseudo_potentials/C.upf
     MD5 check sum: d80ec9912146af6c4c1760317d1f95e9
     Pseudo is Norm-conserving + core correction, Zval =  4.0
     Generated using ONCVPSP code by D. R. Hamann
     Using radial grid of 1248 points,  4 beta functions with: 
                l(1) =   0
                l(2) =   0
                l(3) =   1
                l(4) =   1

     PseudoPot. # 2 for H  read from file:
     /home/ciga/builds/pseudo_potentials/H.upf
     MD5 check sum: 418cee52d0c413ae40802e6cc37ab9e3
     Pseudo is Norm-conserving, Zval =  1.0
     Generated using ONCVPSP code by D. R. Hamann
     Using radial grid of 1166 points,  3 beta functions with: 
                l(1) =   0
                l(2) =   0
                l(3) =   1

     atomic species   valence    mass     pseudopotential
        C              4.00    12.01070     C ( 1.00)
        H              1.00     1.00794     H ( 1.00)

     No symmetry found



   Cartesian axes

     site n.     atom                  positions (alat units)
         1           C   tau(   1) = (   0.0034462   0.0812489  -0.0172208  )
         2           C   tau(   2) = (  -0.0260474  -0.0533169  -0.0567132  )
         3           C   tau(   3) = (   0.0253626  -0.0268239   0.0743467  )
         4           H   tau(   4) = (  -0.0389670  -0.0359377   0.1534024  )
         5           H   tau(   5) = (   0.1214930  -0.0548224   0.0954693  )
         6           H   tau(   6) = (  -0.0752871   0.1439474   0.0012484  )
         7           H   tau(   7) = (   0.0847337   0.1275970  -0.0586375  )
         8           H   tau(   8) = (  -0.1258005  -0.0759317  -0.0597241  )
         9           H   tau(   9) = (   0.0298219  -0.1020343  -0.1272568  )

     number of k points=     1
                       cart. coord. in units 2pi/alat
        k(    1) = (   0.0000000   0.0000000   0.0000000), wk =   2.0000000

     Dense  grid:   316426 G-vectors     FFT dimensions: ( 108, 108, 108)

     Estimated max dynamical RAM per process >      72.65 MB

     Estimated total dynamical RAM >     290.58 MB

     Initial potential from superposition of free atoms

     starting charge   17.99981, renormalised to   18.00000

     negative rho (up, down):  1.457E-04 0.000E+00
     Starting wfcs are   18 randomized atomic wfcs

     total cpu time spent up to now is        1.2 secs

     Self-consistent Calculation

     iteration #  1     ecut=    70.00 Ry     beta= 0.50
     Davidson diagonalization with overlap
     ethr =  1.00E-02,  avg # of iterations =  2.0

     negative rho (up, down):  5.316E-05 0.000E+00

     total cpu time spent up to now is        2.4 secs

     total energy              =     -42.98832356 Ry
     estimated scf accuracy    <       1.07528043 Ry

     iteration #  2     ecut=    70.00 Ry     beta= 0.50
     Davidson diagonalization with overlap
     ethr =  5.97E-03,  avg # of iterations =  2.0

     negative rho (up, down):  2.232E-05 0.000E+00

     total cpu time spent up to now is        3.5 secs

     total energy              =     -43.17312382 Ry
     estimated scf accuracy    <       0.07848411 Ry

     iteration #  3     ecut=    70.00 Ry     beta= 0.50
     Davidson diagonalization with overlap
     ethr =  4.36E-04,  avg # of iterations =  1.0

     negative rho (up, down):  1.438E-06 0.000E+00

     total cpu time spent up to now is        4.5 secs

     total energy              =     -43.16876530 Ry
     estimated scf accuracy    <       0.01716325 Ry

     iteration #  4     ecut=    70.00 Ry     beta= 0.50
     Davidson diagonalization with overlap
     ethr =  9.54E-05,  avg # of iterations =  2.0

     negative rho (up, down):  7.655E-07 0.000E+00

     total cpu time spent up to now is        5.6 secs

     total energy              =     -43.17077211 Ry
     estimated scf accuracy    <       0.00305491 Ry

     iteration #  5     ecut=    70.00 Ry     beta= 0.50
     Davidson diagonalization with overlap
     ethr =  1.70E-05,  avg # of iterations =  3.0

     negative rho (up, down):  1.463E-07 0.000E+00

     total cpu time spent up to now is        6.8 secs

     total energy              =     -43.17133133 Ry
     estimated scf accuracy    <       0.00299316 Ry

     iteration #  6     ecut=    70.00 Ry     beta= 0.50
     Davidson diagonalization with overlap
     ethr =  1.66E-05,  avg # of iterations =  2.0

     total cpu time spent up to now is        7.9 secs

     total energy              =     -43.17202497 Ry
     estimated scf accuracy    <       0.00002408 Ry

     iteration #  7     ecut=    70.00 Ry     beta= 0.50
     Davidson diagonalization with overlap
     ethr =  1.34E-07,  avg # of iterations =  3.0

     total cpu time spent up to now is        9.2 secs

     total energy              =     -43.17202855 Ry
     estimated scf accuracy    <       0.00001184 Ry

     iteration #  8     ecut=    70.00 Ry     beta= 0.50
     Davidson diagonalization with overlap
     ethr =  6.58E-08,  avg # of iterations =  2.0

     total cpu time spent up to now is       10.3 secs

     total energy              =     -43.17203064 Ry
     estimated scf accuracy    <       0.00000066 Ry

     iteration #  9     ecut=    70.00 Ry     beta= 0.50
     Davidson diagonalization with overlap
     ethr =  3.68E-09,  avg # of iterations =  2.0

     total cpu time spent up to now is       11.5 secs

     total energy              =     -43.17203070 Ry
     estimated scf accuracy    <       0.00000100 Ry

     iteration # 10     ecut=    70.00 Ry     beta= 0.50
     Davidson diagonalization with overlap
     ethr =  3.68E-09,  avg # of iterations =  1.0

     total cpu time spent up to now is       12.5 secs

     total energy              =     -43.17203049 Ry
     estimated scf accuracy    <       0.00000040 Ry

     iteration # 11     ecut=    70.00 Ry     beta= 0.50
     Davidson diagonalization with overlap
     ethr =  2.23E-09,  avg # of iterations =  2.0

     total cpu time spent up to now is       13.7 secs

     total energy              =     -43.17203062 Ry
     estimated scf accuracy    <       0.00000001 Ry

     iteration # 12     ecut=    70.00 Ry     beta= 0.50
     Davidson diagonalization with overlap
     ethr =  6.52E-11,  avg # of iterations =  2.0

     total cpu time spent up to now is       14.8 secs

     total energy              =     -43.17203061 Ry
     estimated scf accuracy    <          9.7E-09 Ry

     iteration # 13     ecut=    70.00 Ry     beta= 0.50
     Davidson diagonalization with overlap
     ethr =  5.37E-11,  avg # of iterations =  2.0

     total cpu time spent up to now is       15.9 secs

     total energy              =     -43.17203062 Ry
     estimated scf accuracy    <          6.1E-10 Ry

     iteration # 14     ecut=    70.00 Ry     beta= 0.50
     Davidson diagonalization with overlap
     ethr =  3.40E-12,  avg # of iterations =  3.0

     total cpu time spent up to now is       17.1 secs

     total energy              =     -43.17203062 Ry
     estimated scf accuracy    <          5.4E-11 Ry

     iteration # 15     ecut=    70.00 Ry     beta= 0.50
     Davidson diagonalization with overlap
     ethr =  2.98E-13,  avg # of iterations =  3.0

     total cpu time spent up to now is       18.4 secs

     total energy              =     -43.17203062 Ry
     estimated scf accuracy    <          7.7E-11 Ry

     iteration # 16     ecut=    70.00 Ry     beta= 0.50
     Davidson diagonalization with overlap
     ethr =  2.98E-13,  avg # of iterations =  2.0

     total cpu time spent up to now is       19.5 secs

     total energy              =     -43.17203062 Ry
     estimated scf accuracy    <          8.5E-12 Ry

     iteration # 17     ecut=    70.00 Ry     beta= 0.50
     Davidson diagonalization with overlap
     ethr =  1.00E-13,  avg # of iterations =  2.0

     total cpu time spent up to now is       20.7 secs

     total energy              =     -43.17203062 Ry
     estimated scf accuracy    <          1.4E-12 Ry

     iteration # 18     ecut=    70.00 Ry     beta= 0.50
     Davidson diagonalization with overlap
     ethr =  1.00E-13,  avg # of iterations =  1.0

     total cpu time spent up to now is       21.5 secs

     End of self-consistent calculation

          k = 0.0000 0.0000 0.0000 ( 39559 PWs)   bands (ev):

   -20.7285 -14.2973 -14.2889 -11.7235 -11.0764  -8.3699  -8.3590  -6.7396
    -6.7362

     highest occupied level (ev):    -6.7362

!    total energy              =     -43.17203062 Ry
     estimated scf accuracy    <          2.1E-13 Ry

     The total energy is the sum of the following terms:
     one-electron contribution =    -138.30332486 Ry
     hartree contribution      =      71.42419393 Ry
     xc contribution           =     -17.14883070 Ry
     ewald contribution        =      40.85593101 Ry

     convergence has been achieved in  18 iterations

     Forces acting on atoms (cartesian axes, Ry/au):

     atom    1 type  1   force =     0.00550675   -0.01771642    0.00190499
     atom    2 type  1   force =    -0.01225342    0.01374724    0.01844186
     atom    3 type  1   force =    -0.00037487    0.00464624   -0.01704498
     atom    4 type  2   force =    -0.00441954   -0.00128709    0.00435298
     atom    5 type  2   force =     0.00714172    0.00059192   -0.00059558
     atom    6 type  2   force =    -0.00552854    0.00306485    0.00021503
     atom    7 type  2   force =     0.00678954    0.00099801   -0.00150794
     atom    8 type  2   force =    -0.00659254   -0.00578879   -0.00506559
     atom    9 type  2   force =     0.00973089    0.00174405   -0.00070077

     Total force =     0.041490     Total SCF correction =     0.000001

     Writing output data file ./Cyclopropane.save/

     init_run     :      1.07s CPU      1.16s WALL (       1 calls)
     electrons    :     19.86s CPU     20.32s WALL (       1 calls)
     forces       :      0.69s CPU      0.71s WALL (       1 calls)

     Called by init_run:
     wfcinit      :      0.37s CPU      0.38s WALL (       1 calls)
     potinit      :      0.42s CPU      0.48s WALL (       1 calls)
     hinit0       :      0.17s CPU      0.19s WALL (       1 calls)

     Called by electrons:
     c_bands      :     10.08s CPU     10.14s WALL (      18 calls)
     sum_band     :      2.80s CPU      2.82s WALL (      18 calls)
     v_of_rho     :      5.36s CPU      5.76s WALL (      19 calls)
     mix_rho      :      1.68s CPU      1.69s WALL (      18 calls)

     Called by c_bands:
     init_us_2    :      0.17s CPU      0.18s WALL (      37 calls)
     regterg      :      9.87s CPU      9.93s WALL (      18 calls)

     Called by *egterg:
     rdiaghg      :      0.03s CPU      0.03s WALL (      55 calls)
     h_psi        :      9.26s CPU      9.31s WALL (      56 calls)
     g_psi        :      0.02s CPU      0.02s WALL (      37 calls)

     Called by h_psi:
     h_psi:calbec :      0.74s CPU      0.75s WALL (      56 calls)
     vloc_psi     :      7.87s CPU      7.91s WALL (      56 calls)
     add_vuspsi   :      0.60s CPU      0.60s WALL (      56 calls)

     General routines
     calbec       :      0.80s CPU      0.80s WALL (      60 calls)
     fft          :      3.99s CPU      4.08s WALL (     160 calls)
     ffts         :      0.47s CPU      0.47s WALL (      18 calls)
     fftw         :      7.73s CPU      7.77s WALL (     602 calls)

     Parallel routines

     PWSCF        :     21.70s CPU     22.29s WALL


   This run was terminated on:   7:23:14  24May2021            

=------------------------------------------------------------------------------=
   JOB DONE.
=------------------------------------------------------------------------------=
