
     Program PWSCF v.6.7GPU starts on 24May2021 at  5: 5:51 

     This program is part of the open-source Quantum ESPRESSO suite
     for quantum simulation of materials; please cite
         "P. Giannozzi et al., J. Phys.:Condens. Matter 21 395502 (2009);
         "P. Giannozzi et al., J. Phys.:Condens. Matter 29 465901 (2017);
         "P. Giannozzi et al., J. Chem. Phys. 152 154105 (2020);
          URL http://www.quantum-espresso.org", 
     in publications or presentations arising from this work. More details at
     http://www.quantum-espresso.org/quote

     Parallel version (MPI), running on     4 processors

     MPI processes distributed on     1 nodes
     R & G space division:  proc/nbgrp/npool/nimage =       4
     Waiting for input...
     Reading input from standard input
     Message from routine read_cards :
     DEPRECATED: no units specified in CELL_PARAMETERS card

     Current dimensions of program PWSCF are:
     Max number of different atomic species (ntypx) = 10
     Max number of k-points (npk) =  40000
     Max angular momentum in pseudopotentials (lmaxx) =  3

     gamma-point specific algorithms are used

     Subspace diagonalization in iterative solution of the eigenvalue problem:
     one sub-group per band group will be used
     scalapack distributed-memory algorithm (size of sub-group:  2*  2 procs)


     Parallelization info
     --------------------
     sticks:   dense  smooth     PW     G-vecs:    dense   smooth      PW
     Min        2230    2230    557               158211   158211   19778
     Max        2234    2234    560               158214   158214   19781
     Sum        8929    8929   2233               632851   632851   79117

     Using Slab Decomposition



     bravais-lattice index     =            0
     lattice parameter (alat)  =      20.0000  a.u.
     unit-cell volume          =    8000.0000 (a.u.)^3
     number of atoms/cell      =           16
     number of atomic types    =            2
     number of electrons       =        40.00
     number of Kohn-Sham states=           20
     kinetic-energy cutoff     =      70.0000  Ry
     charge density cutoff     =     280.0000  Ry
     scf convergence threshold =      1.0E-12
     mixing beta               =       0.5000
     number of iterations used =            8  plain     mixing
     Exchange-correlation= PBE
                           (   1   4   3   4   0   0   0)

     celldm(1)=  20.000000  celldm(2)=   0.000000  celldm(3)=   0.000000
     celldm(4)=   0.000000  celldm(5)=   0.000000  celldm(6)=   0.000000

     crystal axes: (cart. coord. in units of alat)
               a(1) = (   1.000000   0.000000   0.000000 )  
               a(2) = (   0.000000   1.000000   0.000000 )  
               a(3) = (   0.000000   0.000000   1.000000 )  

     reciprocal axes: (cart. coord. in units 2 pi/alat)
               b(1) = (  1.000000  0.000000  0.000000 )  
               b(2) = (  0.000000  1.000000  0.000000 )  
               b(3) = (  0.000000  0.000000  1.000000 )  


     PseudoPot. # 1 for C  read from file:
     /home/ciga/builds/pseudo_potentials/C.upf
     MD5 check sum: d80ec9912146af6c4c1760317d1f95e9
     Pseudo is Norm-conserving + core correction, Zval =  4.0
     Generated using ONCVPSP code by D. R. Hamann
     Using radial grid of 1248 points,  4 beta functions with: 
                l(1) =   0
                l(2) =   0
                l(3) =   1
                l(4) =   1

     PseudoPot. # 2 for H  read from file:
     /home/ciga/builds/pseudo_potentials/H.upf
     MD5 check sum: 418cee52d0c413ae40802e6cc37ab9e3
     Pseudo is Norm-conserving, Zval =  1.0
     Generated using ONCVPSP code by D. R. Hamann
     Using radial grid of 1166 points,  3 beta functions with: 
                l(1) =   0
                l(2) =   0
                l(3) =   1

     atomic species   valence    mass     pseudopotential
        C              4.00    12.01070     C ( 1.00)
        H              1.00     1.00794     H ( 1.00)

     No symmetry found



   Cartesian axes

     site n.     atom                  positions (alat units)
         1           C   tau(   1) = (  -0.0248216  -0.1574425   0.0362166  )
         2           C   tau(   2) = (   0.0976138  -0.1266967   0.0361599  )
         3           C   tau(   3) = (  -0.0972925   0.1266778   0.0363300  )
         4           C   tau(   4) = (   0.0248499   0.1574709   0.0362355  )
         5           C   tau(   5) = (  -0.1268384  -0.0970563  -0.0358670  )
         6           C   tau(   6) = (   0.1584535  -0.0248971  -0.0362544  )
         7           C   tau(   7) = (  -0.1591244   0.0247082  -0.0369536  )
         8           C   tau(   8) = (   0.1271313   0.0974343  -0.0361221  )
         9           H   tau(   9) = (  -0.0537627  -0.2408645   0.0912643  )
        10           H   tau(  10) = (   0.1626487  -0.1863270   0.0912360  )
        11           H   tau(  11) = (  -0.1623653   0.1862325   0.0916706  )
        12           H   tau(  12) = (   0.0539139   0.2407606   0.0916328  )
        13           H   tau(  13) = (  -0.1860246  -0.1632251  -0.0904706  )
        14           H   tau(  14) = (   0.2419133  -0.0536493  -0.0911793  )
        15           H   tau(  15) = (  -0.2427259   0.0530163  -0.0917462  )
        16           H   tau(  16) = (   0.1866199   0.1628566  -0.0908297  )

     number of k points=     1
                       cart. coord. in units 2pi/alat
        k(    1) = (   0.0000000   0.0000000   0.0000000), wk =   2.0000000

     Dense  grid:   316426 G-vectors     FFT dimensions: ( 108, 108, 108)

     Estimated max dynamical RAM per process >      88.52 MB

     Estimated total dynamical RAM >     354.08 MB

     Initial potential from superposition of free atoms

     starting charge   39.99957, renormalised to   40.00000

     negative rho (up, down):  8.618E-05 0.000E+00
     Starting wfcs are   40 randomized atomic wfcs

     total cpu time spent up to now is        1.9 secs

     Self-consistent Calculation

     iteration #  1     ecut=    70.00 Ry     beta= 0.50
     Davidson diagonalization with overlap
     ethr =  1.00E-02,  avg # of iterations =  2.0

     negative rho (up, down):  2.445E-05 0.000E+00

     total cpu time spent up to now is        4.2 secs

     total energy              =    -105.34910779 Ry
     estimated scf accuracy    <       1.78512869 Ry

     iteration #  2     ecut=    70.00 Ry     beta= 0.50
     Davidson diagonalization with overlap
     ethr =  4.46E-03,  avg # of iterations =  2.0

     negative rho (up, down):  7.962E-06 0.000E+00

     total cpu time spent up to now is        6.3 secs

     total energy              =    -105.57588544 Ry
     estimated scf accuracy    <       0.13968702 Ry

     iteration #  3     ecut=    70.00 Ry     beta= 0.50
     Davidson diagonalization with overlap
     ethr =  3.49E-04,  avg # of iterations =  2.0

     negative rho (up, down):  7.380E-07 0.000E+00

     total cpu time spent up to now is        8.1 secs

     total energy              =    -105.58168459 Ry
     estimated scf accuracy    <       0.02050129 Ry

     iteration #  4     ecut=    70.00 Ry     beta= 0.50
     Davidson diagonalization with overlap
     ethr =  5.13E-05,  avg # of iterations =  2.0

     negative rho (up, down):  1.097E-08 0.000E+00

     total cpu time spent up to now is       10.2 secs

     total energy              =    -105.58457375 Ry
     estimated scf accuracy    <       0.00131088 Ry

     iteration #  5     ecut=    70.00 Ry     beta= 0.50
     Davidson diagonalization with overlap
     ethr =  3.28E-06,  avg # of iterations =  3.0

     total cpu time spent up to now is       12.6 secs

     total energy              =    -105.58514043 Ry
     estimated scf accuracy    <       0.00046914 Ry

     iteration #  6     ecut=    70.00 Ry     beta= 0.50
     Davidson diagonalization with overlap
     ethr =  1.17E-06,  avg # of iterations =  3.0

     total cpu time spent up to now is       14.7 secs

     total energy              =    -105.58524843 Ry
     estimated scf accuracy    <       0.00001589 Ry

     iteration #  7     ecut=    70.00 Ry     beta= 0.50
     Davidson diagonalization with overlap
     ethr =  3.97E-08,  avg # of iterations =  5.0

     total cpu time spent up to now is       17.7 secs

     total energy              =    -105.58526216 Ry
     estimated scf accuracy    <       0.00000167 Ry

     iteration #  8     ecut=    70.00 Ry     beta= 0.50
     Davidson diagonalization with overlap
     ethr =  4.18E-09,  avg # of iterations =  2.0

     total cpu time spent up to now is       19.8 secs

     total energy              =    -105.58526235 Ry
     estimated scf accuracy    <       0.00000024 Ry

     iteration #  9     ecut=    70.00 Ry     beta= 0.50
     Davidson diagonalization with overlap
     ethr =  5.93E-10,  avg # of iterations =  6.0

     total cpu time spent up to now is       22.4 secs

     total energy              =    -105.58526243 Ry
     estimated scf accuracy    <       0.00000005 Ry

     iteration # 10     ecut=    70.00 Ry     beta= 0.50
     Davidson diagonalization with overlap
     ethr =  1.31E-10,  avg # of iterations =  6.0

     total cpu time spent up to now is       24.9 secs

     total energy              =    -105.58526244 Ry
     estimated scf accuracy    <       0.00000003 Ry

     iteration # 11     ecut=    70.00 Ry     beta= 0.50
     Davidson diagonalization with overlap
     ethr =  6.57E-11,  avg # of iterations =  4.0

     total cpu time spent up to now is       26.9 secs

     total energy              =    -105.58526245 Ry
     estimated scf accuracy    <          3.1E-09 Ry

     iteration # 12     ecut=    70.00 Ry     beta= 0.50
     Davidson diagonalization with overlap
     ethr =  7.87E-12,  avg # of iterations =  4.0

     total cpu time spent up to now is       29.3 secs

     total energy              =    -105.58526245 Ry
     estimated scf accuracy    <          1.6E-10 Ry

     iteration # 13     ecut=    70.00 Ry     beta= 0.50
     Davidson diagonalization with overlap
     ethr =  4.12E-13,  avg # of iterations =  6.0

     total cpu time spent up to now is       32.0 secs

     total energy              =    -105.58526245 Ry
     estimated scf accuracy    <          2.0E-10 Ry

     iteration # 14     ecut=    70.00 Ry     beta= 0.50
     Davidson diagonalization with overlap
     ethr =  4.12E-13,  avg # of iterations =  2.0

     total cpu time spent up to now is       33.9 secs

     total energy              =    -105.58526245 Ry
     estimated scf accuracy    <          7.0E-11 Ry

     iteration # 15     ecut=    70.00 Ry     beta= 0.50
     Davidson diagonalization with overlap
     ethr =  1.76E-13,  avg # of iterations =  5.0

     total cpu time spent up to now is       36.3 secs

     total energy              =    -105.58526245 Ry
     estimated scf accuracy    <          7.3E-12 Ry

     iteration # 16     ecut=    70.00 Ry     beta= 0.50
     Davidson diagonalization with overlap
     ethr =  1.00E-13,  avg # of iterations =  2.0

     total cpu time spent up to now is       38.0 secs

     total energy              =    -105.58526245 Ry
     estimated scf accuracy    <          5.1E-12 Ry

     iteration # 17     ecut=    70.00 Ry     beta= 0.50
     Davidson diagonalization with overlap
     ethr =  1.00E-13,  avg # of iterations =  1.0

     total cpu time spent up to now is       39.7 secs

     total energy              =    -105.58526245 Ry
     estimated scf accuracy    <          1.3E-12 Ry

     iteration # 18     ecut=    70.00 Ry     beta= 0.50
     Davidson diagonalization with overlap
     ethr =  1.00E-13,  avg # of iterations =  1.0

     total cpu time spent up to now is       41.3 secs

     End of self-consistent calculation

          k = 0.0000 0.0000 0.0000 ( 39559 PWs)   bands (ev):

   -20.0633 -18.6549 -18.6345 -16.5182 -15.5465 -13.2035 -13.1585 -11.7373
   -10.4174 -10.3972 -10.3119 -10.2693  -9.7123  -8.0529  -8.0100  -7.1995
    -6.8766  -5.9737  -5.9679  -4.5688

     highest occupied level (ev):    -4.5688

!    total energy              =    -105.58526245 Ry
     estimated scf accuracy    <          1.9E-13 Ry

     The total energy is the sum of the following terms:
     one-electron contribution =    -369.47793419 Ry
     hartree contribution      =     190.38792206 Ry
     xc contribution           =     -39.67359659 Ry
     ewald contribution        =     113.17834627 Ry

     convergence has been achieved in  18 iterations

     Forces acting on atoms (cartesian axes, Ry/au):

     atom    1 type  1   force =    -0.01956645   -0.00922392    0.00861451
     atom    2 type  1   force =     0.02335778    0.00197328    0.00557369
     atom    3 type  1   force =    -0.03625399   -0.00654864    0.00011043
     atom    4 type  1   force =     0.02700038    0.01250066    0.00709828
     atom    5 type  1   force =    -0.00244990   -0.03131617   -0.01165333
     atom    6 type  1   force =     0.00812774   -0.01996454   -0.00549910
     atom    7 type  1   force =     0.00057880    0.03123718    0.00343313
     atom    8 type  1   force =    -0.00241728    0.02095281   -0.00683569
     atom    9 type  2   force =     0.00313126    0.00570134   -0.00520482
     atom   10 type  2   force =    -0.00521875    0.00307029   -0.00535603
     atom   11 type  2   force =     0.00620797   -0.00431157   -0.00562334
     atom   12 type  2   force =    -0.00385757   -0.00668792   -0.00555160
     atom   13 type  2   force =     0.00402355    0.00657117    0.00589593
     atom   14 type  2   force =    -0.00480651    0.00281868    0.00513035
     atom   15 type  2   force =     0.00535948   -0.00189344    0.00498332
     atom   16 type  2   force =    -0.00321650   -0.00487923    0.00488427

     Total force =     0.084220     Total SCF correction =     0.000001

     Writing output data file ./Cyclooctatetraene.save/

     init_run     :      1.74s CPU      1.83s WALL (       1 calls)
     electrons    :     38.88s CPU     39.43s WALL (       1 calls)
     forces       :      1.05s CPU      1.07s WALL (       1 calls)

     Called by init_run:
     wfcinit      :      1.00s CPU      1.03s WALL (       1 calls)
     potinit      :      0.46s CPU      0.49s WALL (       1 calls)
     hinit0       :      0.16s CPU      0.18s WALL (       1 calls)

     Called by electrons:
     c_bands      :     27.24s CPU     27.46s WALL (      18 calls)
     sum_band     :      4.45s CPU      4.48s WALL (      18 calls)
     v_of_rho     :      5.62s CPU      5.93s WALL (      19 calls)
     mix_rho      :      1.67s CPU      1.68s WALL (      18 calls)

     Called by c_bands:
     init_us_2    :      0.30s CPU      0.31s WALL (      37 calls)
     regterg      :     26.83s CPU     27.05s WALL (      18 calls)

     Called by *egterg:
     rdiaghg      :      0.08s CPU      0.08s WALL (      76 calls)
     h_psi        :     23.01s CPU     23.16s WALL (      77 calls)
     g_psi        :      0.05s CPU      0.05s WALL (      58 calls)

     Called by h_psi:
     h_psi:calbec :      3.26s CPU      3.27s WALL (      77 calls)
     vloc_psi     :     17.03s CPU     17.16s WALL (      77 calls)
     add_vuspsi   :      2.61s CPU      2.62s WALL (      77 calls)

     General routines
     calbec       :      3.50s CPU      3.51s WALL (      81 calls)
     fft          :      3.91s CPU      4.00s WALL (     160 calls)
     ffts         :      0.46s CPU      0.47s WALL (      18 calls)
     fftw         :     16.62s CPU     16.73s WALL (    1268 calls)

     Parallel routines

     PWSCF        :     41.75s CPU     42.44s WALL


   This run was terminated on:   5: 6:34  24May2021            

=------------------------------------------------------------------------------=
   JOB DONE.
=------------------------------------------------------------------------------=
