
     Program PWSCF v.6.7GPU starts on 24May2021 at  7:23:14 

     This program is part of the open-source Quantum ESPRESSO suite
     for quantum simulation of materials; please cite
         "P. Giannozzi et al., J. Phys.:Condens. Matter 21 395502 (2009);
         "P. Giannozzi et al., J. Phys.:Condens. Matter 29 465901 (2017);
         "P. Giannozzi et al., J. Chem. Phys. 152 154105 (2020);
          URL http://www.quantum-espresso.org", 
     in publications or presentations arising from this work. More details at
     http://www.quantum-espresso.org/quote

     Parallel version (MPI), running on     4 processors

     MPI processes distributed on     1 nodes
     R & G space division:  proc/nbgrp/npool/nimage =       4
     Waiting for input...
     Reading input from standard input
     Message from routine read_cards :
     DEPRECATED: no units specified in CELL_PARAMETERS card

     Current dimensions of program PWSCF are:
     Max number of different atomic species (ntypx) = 10
     Max number of k-points (npk) =  40000
     Max angular momentum in pseudopotentials (lmaxx) =  3

     gamma-point specific algorithms are used

     Subspace diagonalization in iterative solution of the eigenvalue problem:
     one sub-group per band group will be used
     scalapack distributed-memory algorithm (size of sub-group:  2*  2 procs)


     Parallelization info
     --------------------
     sticks:   dense  smooth     PW     G-vecs:    dense   smooth      PW
     Min        2386    2386    595               175366   175366   21912
     Max        2388    2388    598               175372   175372   21918
     Sum        9549    9549   2385               701475   701475   87655

     Using Slab Decomposition



     bravais-lattice index     =            0
     lattice parameter (alat)  =      20.0000  a.u.
     unit-cell volume          =    8000.0000 (a.u.)^3
     number of atoms/cell      =            9
     number of atomic types    =            2
     number of electrons       =        18.00
     number of Kohn-Sham states=            9
     kinetic-energy cutoff     =      75.0000  Ry
     charge density cutoff     =     300.0000  Ry
     scf convergence threshold =      1.0E-12
     mixing beta               =       0.5000
     number of iterations used =            8  plain     mixing
     Exchange-correlation= PBE
                           (   1   4   3   4   0   0   0)

     celldm(1)=  20.000000  celldm(2)=   0.000000  celldm(3)=   0.000000
     celldm(4)=   0.000000  celldm(5)=   0.000000  celldm(6)=   0.000000

     crystal axes: (cart. coord. in units of alat)
               a(1) = (   1.000000   0.000000   0.000000 )  
               a(2) = (   0.000000   1.000000   0.000000 )  
               a(3) = (   0.000000   0.000000   1.000000 )  

     reciprocal axes: (cart. coord. in units 2 pi/alat)
               b(1) = (  1.000000  0.000000  0.000000 )  
               b(2) = (  0.000000  1.000000  0.000000 )  
               b(3) = (  0.000000  0.000000  1.000000 )  


     PseudoPot. # 1 for C  read from file:
     /home/ciga/builds/pseudo_potentials/C.upf
     MD5 check sum: d80ec9912146af6c4c1760317d1f95e9
     Pseudo is Norm-conserving + core correction, Zval =  4.0
     Generated using ONCVPSP code by D. R. Hamann
     Using radial grid of 1248 points,  4 beta functions with: 
                l(1) =   0
                l(2) =   0
                l(3) =   1
                l(4) =   1

     PseudoPot. # 2 for H  read from file:
     /home/ciga/builds/pseudo_potentials/H.upf
     MD5 check sum: 418cee52d0c413ae40802e6cc37ab9e3
     Pseudo is Norm-conserving, Zval =  1.0
     Generated using ONCVPSP code by D. R. Hamann
     Using radial grid of 1166 points,  3 beta functions with: 
                l(1) =   0
                l(2) =   0
                l(3) =   1

     atomic species   valence    mass     pseudopotential
        C              4.00    12.01070     C ( 1.00)
        H              1.00     1.00794     H ( 1.00)

     No symmetry found



   Cartesian axes

     site n.     atom                  positions (alat units)
         1           C   tau(   1) = (   0.0034462   0.0812489  -0.0172208  )
         2           C   tau(   2) = (  -0.0260474  -0.0533169  -0.0567132  )
         3           C   tau(   3) = (   0.0253626  -0.0268239   0.0743467  )
         4           H   tau(   4) = (  -0.0389670  -0.0359377   0.1534024  )
         5           H   tau(   5) = (   0.1214930  -0.0548224   0.0954693  )
         6           H   tau(   6) = (  -0.0752871   0.1439474   0.0012484  )
         7           H   tau(   7) = (   0.0847337   0.1275970  -0.0586375  )
         8           H   tau(   8) = (  -0.1258005  -0.0759317  -0.0597241  )
         9           H   tau(   9) = (   0.0298219  -0.1020343  -0.1272568  )

     number of k points=     1
                       cart. coord. in units 2pi/alat
        k(    1) = (   0.0000000   0.0000000   0.0000000), wk =   2.0000000

     Dense  grid:   350738 G-vectors     FFT dimensions: ( 120, 120, 120)

     Estimated max dynamical RAM per process >      86.17 MB

     Estimated total dynamical RAM >     344.68 MB

     Initial potential from superposition of free atoms

     starting charge   17.99981, renormalised to   18.00000

     negative rho (up, down):  1.029E-04 0.000E+00
     Starting wfcs are   18 randomized atomic wfcs

     total cpu time spent up to now is        1.4 secs

     Self-consistent Calculation

     iteration #  1     ecut=    75.00 Ry     beta= 0.50
     Davidson diagonalization with overlap
     ethr =  1.00E-02,  avg # of iterations =  2.0

     negative rho (up, down):  3.416E-05 0.000E+00

     total cpu time spent up to now is        2.7 secs

     total energy              =     -42.98988288 Ry
     estimated scf accuracy    <       1.07558450 Ry

     iteration #  2     ecut=    75.00 Ry     beta= 0.50
     Davidson diagonalization with overlap
     ethr =  5.98E-03,  avg # of iterations =  2.0

     negative rho (up, down):  1.355E-05 0.000E+00

     total cpu time spent up to now is        4.0 secs

     total energy              =     -43.17451081 Ry
     estimated scf accuracy    <       0.07837733 Ry

     iteration #  3     ecut=    75.00 Ry     beta= 0.50
     Davidson diagonalization with overlap
     ethr =  4.35E-04,  avg # of iterations =  1.0

     negative rho (up, down):  8.253E-07 0.000E+00

     total cpu time spent up to now is        5.1 secs

     total energy              =     -43.17015664 Ry
     estimated scf accuracy    <       0.01714075 Ry

     iteration #  4     ecut=    75.00 Ry     beta= 0.50
     Davidson diagonalization with overlap
     ethr =  9.52E-05,  avg # of iterations =  2.0

     negative rho (up, down):  4.416E-07 0.000E+00

     total cpu time spent up to now is        6.4 secs

     total energy              =     -43.17216341 Ry
     estimated scf accuracy    <       0.00305394 Ry

     iteration #  5     ecut=    75.00 Ry     beta= 0.50
     Davidson diagonalization with overlap
     ethr =  1.70E-05,  avg # of iterations =  3.0

     negative rho (up, down):  9.437E-08 0.000E+00

     total cpu time spent up to now is        7.7 secs

     total energy              =     -43.17272560 Ry
     estimated scf accuracy    <       0.00302220 Ry

     iteration #  6     ecut=    75.00 Ry     beta= 0.50
     Davidson diagonalization with overlap
     ethr =  1.68E-05,  avg # of iterations =  2.0

     total cpu time spent up to now is        9.0 secs

     total energy              =     -43.17341715 Ry
     estimated scf accuracy    <       0.00002093 Ry

     iteration #  7     ecut=    75.00 Ry     beta= 0.50
     Davidson diagonalization with overlap
     ethr =  1.16E-07,  avg # of iterations =  3.0

     total cpu time spent up to now is       10.5 secs

     total energy              =     -43.17342191 Ry
     estimated scf accuracy    <       0.00001005 Ry

     iteration #  8     ecut=    75.00 Ry     beta= 0.50
     Davidson diagonalization with overlap
     ethr =  5.58E-08,  avg # of iterations =  2.0

     total cpu time spent up to now is       11.8 secs

     total energy              =     -43.17342362 Ry
     estimated scf accuracy    <       0.00000063 Ry

     iteration #  9     ecut=    75.00 Ry     beta= 0.50
     Davidson diagonalization with overlap
     ethr =  3.49E-09,  avg # of iterations =  2.0

     total cpu time spent up to now is       13.2 secs

     total energy              =     -43.17342368 Ry
     estimated scf accuracy    <       0.00000101 Ry

     iteration # 10     ecut=    75.00 Ry     beta= 0.50
     Davidson diagonalization with overlap
     ethr =  3.49E-09,  avg # of iterations =  1.0

     total cpu time spent up to now is       14.3 secs

     total energy              =     -43.17342345 Ry
     estimated scf accuracy    <       0.00000041 Ry

     iteration # 11     ecut=    75.00 Ry     beta= 0.50
     Davidson diagonalization with overlap
     ethr =  2.29E-09,  avg # of iterations =  2.0

     total cpu time spent up to now is       15.7 secs

     total energy              =     -43.17342359 Ry
     estimated scf accuracy    <       0.00000002 Ry

     iteration # 12     ecut=    75.00 Ry     beta= 0.50
     Davidson diagonalization with overlap
     ethr =  9.72E-11,  avg # of iterations =  2.0

     total cpu time spent up to now is       17.0 secs

     total energy              =     -43.17342359 Ry
     estimated scf accuracy    <          8.1E-09 Ry

     iteration # 13     ecut=    75.00 Ry     beta= 0.50
     Davidson diagonalization with overlap
     ethr =  4.49E-11,  avg # of iterations =  1.0

     total cpu time spent up to now is       18.1 secs

     total energy              =     -43.17342359 Ry
     estimated scf accuracy    <          1.5E-09 Ry

     iteration # 14     ecut=    75.00 Ry     beta= 0.50
     Davidson diagonalization with overlap
     ethr =  8.29E-12,  avg # of iterations =  2.0

     total cpu time spent up to now is       19.4 secs

     total energy              =     -43.17342359 Ry
     estimated scf accuracy    <          3.4E-11 Ry

     iteration # 15     ecut=    75.00 Ry     beta= 0.50
     Davidson diagonalization with overlap
     ethr =  1.90E-13,  avg # of iterations =  4.0

     total cpu time spent up to now is       21.1 secs

     total energy              =     -43.17342359 Ry
     estimated scf accuracy    <          3.4E-10 Ry

     iteration # 16     ecut=    75.00 Ry     beta= 0.50
     Davidson diagonalization with overlap
     ethr =  1.90E-13,  avg # of iterations =  2.0

     total cpu time spent up to now is       22.5 secs

     total energy              =     -43.17342359 Ry
     estimated scf accuracy    <          9.9E-11 Ry

     iteration # 17     ecut=    75.00 Ry     beta= 0.50
     Davidson diagonalization with overlap
     ethr =  1.90E-13,  avg # of iterations =  3.0

     total cpu time spent up to now is       24.0 secs

     total energy              =     -43.17342359 Ry
     estimated scf accuracy    <          8.6E-12 Ry

     iteration # 18     ecut=    75.00 Ry     beta= 0.50
     Davidson diagonalization with overlap
     ethr =  1.00E-13,  avg # of iterations =  2.0

     total cpu time spent up to now is       25.1 secs

     End of self-consistent calculation

          k = 0.0000 0.0000 0.0000 ( 43828 PWs)   bands (ev):

   -20.7272 -14.2964 -14.2881 -11.7233 -11.0763  -8.3699  -8.3590  -6.7397
    -6.7363

     highest occupied level (ev):    -6.7363

!    total energy              =     -43.17342359 Ry
     estimated scf accuracy    <          4.7E-13 Ry

     The total energy is the sum of the following terms:
     one-electron contribution =    -138.30566491 Ry
     hartree contribution      =      71.42578154 Ry
     xc contribution           =     -17.14947122 Ry
     ewald contribution        =      40.85593101 Ry

     convergence has been achieved in  18 iterations

     Forces acting on atoms (cartesian axes, Ry/au):

     atom    1 type  1   force =     0.00549894   -0.01783995    0.00192238
     atom    2 type  1   force =    -0.01222435    0.01383065    0.01853445
     atom    3 type  1   force =    -0.00040731    0.00468427   -0.01715356
     atom    4 type  2   force =    -0.00434660   -0.00128065    0.00427064
     atom    5 type  2   force =     0.00703619    0.00062057   -0.00061263
     atom    6 type  2   force =    -0.00543786    0.00300521    0.00019230
     atom    7 type  2   force =     0.00669721    0.00095235   -0.00146202
     atom    8 type  2   force =    -0.00648122   -0.00576950   -0.00506742
     atom    9 type  2   force =     0.00966500    0.00179705   -0.00062413

     Total force =     0.041550     Total SCF correction =     0.000001

     Writing output data file ./Cyclopropane.save/

     init_run     :      1.20s CPU      1.30s WALL (       1 calls)
     electrons    :     23.18s CPU     23.78s WALL (       1 calls)
     forces       :      0.80s CPU      0.83s WALL (       1 calls)

     Called by init_run:
     wfcinit      :      0.39s CPU      0.41s WALL (       1 calls)
     potinit      :      0.50s CPU      0.55s WALL (       1 calls)
     hinit0       :      0.17s CPU      0.19s WALL (       1 calls)

     Called by electrons:
     c_bands      :     11.47s CPU     11.55s WALL (      18 calls)
     sum_band     :      3.27s CPU      3.29s WALL (      18 calls)
     v_of_rho     :      6.67s CPU      7.15s WALL (      19 calls)
     mix_rho      :      1.92s CPU      1.94s WALL (      18 calls)

     Called by c_bands:
     init_us_2    :      0.19s CPU      0.19s WALL (      37 calls)
     regterg      :     11.24s CPU     11.32s WALL (      18 calls)

     Called by *egterg:
     rdiaghg      :      0.03s CPU      0.03s WALL (      56 calls)
     h_psi        :     10.48s CPU     10.56s WALL (      57 calls)
     g_psi        :      0.02s CPU      0.02s WALL (      38 calls)

     Called by h_psi:
     h_psi:calbec :      0.82s CPU      0.82s WALL (      57 calls)
     vloc_psi     :      8.92s CPU      9.00s WALL (      57 calls)
     add_vuspsi   :      0.68s CPU      0.68s WALL (      57 calls)

     General routines
     calbec       :      0.88s CPU      0.88s WALL (      61 calls)
     fft          :      4.60s CPU      4.76s WALL (     160 calls)
     ffts         :      0.51s CPU      0.51s WALL (      18 calls)
     fftw         :      8.34s CPU      8.41s WALL (     620 calls)

     Parallel routines

     PWSCF        :     25.26s CPU     26.01s WALL


   This run was terminated on:   7:23:40  24May2021            

=------------------------------------------------------------------------------=
   JOB DONE.
=------------------------------------------------------------------------------=
