
     Program PWSCF v.6.7GPU starts on 24May2021 at  7:21:41 

     This program is part of the open-source Quantum ESPRESSO suite
     for quantum simulation of materials; please cite
         "P. Giannozzi et al., J. Phys.:Condens. Matter 21 395502 (2009);
         "P. Giannozzi et al., J. Phys.:Condens. Matter 29 465901 (2017);
         "P. Giannozzi et al., J. Chem. Phys. 152 154105 (2020);
          URL http://www.quantum-espresso.org", 
     in publications or presentations arising from this work. More details at
     http://www.quantum-espresso.org/quote

     Parallel version (MPI), running on     4 processors

     MPI processes distributed on     1 nodes
     R & G space division:  proc/nbgrp/npool/nimage =       4
     Waiting for input...
     Reading input from standard input
     Message from routine read_cards :
     DEPRECATED: no units specified in CELL_PARAMETERS card

     Current dimensions of program PWSCF are:
     Max number of different atomic species (ntypx) = 10
     Max number of k-points (npk) =  40000
     Max angular momentum in pseudopotentials (lmaxx) =  3

     gamma-point specific algorithms are used

     Subspace diagonalization in iterative solution of the eigenvalue problem:
     one sub-group per band group will be used
     scalapack distributed-memory algorithm (size of sub-group:  2*  2 procs)


     Parallelization info
     --------------------
     sticks:   dense  smooth     PW     G-vecs:    dense   smooth      PW
     Min        1429    1429    358                81505    81505   10162
     Max        1432    1432    359                81512    81512   10165
     Sum        5721    5721   1433               326029   326029   40651

     Using Slab Decomposition



     bravais-lattice index     =            0
     lattice parameter (alat)  =      20.0000  a.u.
     unit-cell volume          =    8000.0000 (a.u.)^3
     number of atoms/cell      =            9
     number of atomic types    =            2
     number of electrons       =        18.00
     number of Kohn-Sham states=            9
     kinetic-energy cutoff     =      45.0000  Ry
     charge density cutoff     =     180.0000  Ry
     scf convergence threshold =      1.0E-12
     mixing beta               =       0.5000
     number of iterations used =            8  plain     mixing
     Exchange-correlation= PBE
                           (   1   4   3   4   0   0   0)

     celldm(1)=  20.000000  celldm(2)=   0.000000  celldm(3)=   0.000000
     celldm(4)=   0.000000  celldm(5)=   0.000000  celldm(6)=   0.000000

     crystal axes: (cart. coord. in units of alat)
               a(1) = (   1.000000   0.000000   0.000000 )  
               a(2) = (   0.000000   1.000000   0.000000 )  
               a(3) = (   0.000000   0.000000   1.000000 )  

     reciprocal axes: (cart. coord. in units 2 pi/alat)
               b(1) = (  1.000000  0.000000  0.000000 )  
               b(2) = (  0.000000  1.000000  0.000000 )  
               b(3) = (  0.000000  0.000000  1.000000 )  


     PseudoPot. # 1 for C  read from file:
     /home/ciga/builds/pseudo_potentials/C.upf
     MD5 check sum: d80ec9912146af6c4c1760317d1f95e9
     Pseudo is Norm-conserving + core correction, Zval =  4.0
     Generated using ONCVPSP code by D. R. Hamann
     Using radial grid of 1248 points,  4 beta functions with: 
                l(1) =   0
                l(2) =   0
                l(3) =   1
                l(4) =   1

     PseudoPot. # 2 for H  read from file:
     /home/ciga/builds/pseudo_potentials/H.upf
     MD5 check sum: 418cee52d0c413ae40802e6cc37ab9e3
     Pseudo is Norm-conserving, Zval =  1.0
     Generated using ONCVPSP code by D. R. Hamann
     Using radial grid of 1166 points,  3 beta functions with: 
                l(1) =   0
                l(2) =   0
                l(3) =   1

     atomic species   valence    mass     pseudopotential
        C              4.00    12.01070     C ( 1.00)
        H              1.00     1.00794     H ( 1.00)

     No symmetry found



   Cartesian axes

     site n.     atom                  positions (alat units)
         1           C   tau(   1) = (   0.0034462   0.0812489  -0.0172208  )
         2           C   tau(   2) = (  -0.0260474  -0.0533169  -0.0567132  )
         3           C   tau(   3) = (   0.0253626  -0.0268239   0.0743467  )
         4           H   tau(   4) = (  -0.0389670  -0.0359377   0.1534024  )
         5           H   tau(   5) = (   0.1214930  -0.0548224   0.0954693  )
         6           H   tau(   6) = (  -0.0752871   0.1439474   0.0012484  )
         7           H   tau(   7) = (   0.0847337   0.1275970  -0.0586375  )
         8           H   tau(   8) = (  -0.1258005  -0.0759317  -0.0597241  )
         9           H   tau(   9) = (   0.0298219  -0.1020343  -0.1272568  )

     number of k points=     1
                       cart. coord. in units 2pi/alat
        k(    1) = (   0.0000000   0.0000000   0.0000000), wk =   2.0000000

     Dense  grid:   163015 G-vectors     FFT dimensions: (  90,  90,  90)

     Estimated max dynamical RAM per process >      39.30 MB

     Estimated total dynamical RAM >     157.22 MB

     Initial potential from superposition of free atoms

     starting charge   17.99981, renormalised to   18.00000

     negative rho (up, down):  1.127E-03 0.000E+00
     Starting wfcs are   18 randomized atomic wfcs

     total cpu time spent up to now is        0.7 secs

     Self-consistent Calculation

     iteration #  1     ecut=    45.00 Ry     beta= 0.50
     Davidson diagonalization with overlap
     ethr =  1.00E-02,  avg # of iterations =  2.0

     negative rho (up, down):  5.201E-04 0.000E+00

     total cpu time spent up to now is        1.3 secs

     total energy              =     -42.92264970 Ry
     estimated scf accuracy    <       1.03240634 Ry

     iteration #  2     ecut=    45.00 Ry     beta= 0.50
     Davidson diagonalization with overlap
     ethr =  5.74E-03,  avg # of iterations =  2.0

     negative rho (up, down):  2.395E-04 0.000E+00

     total cpu time spent up to now is        1.9 secs

     total energy              =     -43.09481973 Ry
     estimated scf accuracy    <       0.07681439 Ry

     iteration #  3     ecut=    45.00 Ry     beta= 0.50
     Davidson diagonalization with overlap
     ethr =  4.27E-04,  avg # of iterations =  1.0

     negative rho (up, down):  1.327E-05 0.000E+00

     total cpu time spent up to now is        2.4 secs

     total energy              =     -43.09048294 Ry
     estimated scf accuracy    <       0.01650094 Ry

     iteration #  4     ecut=    45.00 Ry     beta= 0.50
     Davidson diagonalization with overlap
     ethr =  9.17E-05,  avg # of iterations =  2.0

     negative rho (up, down):  6.011E-06 0.000E+00

     total cpu time spent up to now is        3.0 secs

     total energy              =     -43.09237872 Ry
     estimated scf accuracy    <       0.00281390 Ry

     iteration #  5     ecut=    45.00 Ry     beta= 0.50
     Davidson diagonalization with overlap
     ethr =  1.56E-05,  avg # of iterations =  3.0

     negative rho (up, down):  4.135E-07 0.000E+00

     total cpu time spent up to now is        3.6 secs

     total energy              =     -43.09286598 Ry
     estimated scf accuracy    <       0.00276193 Ry

     iteration #  6     ecut=    45.00 Ry     beta= 0.50
     Davidson diagonalization with overlap
     ethr =  1.53E-05,  avg # of iterations =  2.0

     total cpu time spent up to now is        4.2 secs

     total energy              =     -43.09352216 Ry
     estimated scf accuracy    <       0.00003045 Ry

     iteration #  7     ecut=    45.00 Ry     beta= 0.50
     Davidson diagonalization with overlap
     ethr =  1.69E-07,  avg # of iterations =  2.0

     total cpu time spent up to now is        4.8 secs

     total energy              =     -43.09352519 Ry
     estimated scf accuracy    <       0.00001035 Ry

     iteration #  8     ecut=    45.00 Ry     beta= 0.50
     Davidson diagonalization with overlap
     ethr =  5.75E-08,  avg # of iterations =  2.0

     total cpu time spent up to now is        5.4 secs

     total energy              =     -43.09352699 Ry
     estimated scf accuracy    <       0.00000046 Ry

     iteration #  9     ecut=    45.00 Ry     beta= 0.50
     Davidson diagonalization with overlap
     ethr =  2.53E-09,  avg # of iterations =  2.0

     total cpu time spent up to now is        6.0 secs

     total energy              =     -43.09352700 Ry
     estimated scf accuracy    <       0.00000075 Ry

     iteration # 10     ecut=    45.00 Ry     beta= 0.50
     Davidson diagonalization with overlap
     ethr =  2.53E-09,  avg # of iterations =  1.0

     total cpu time spent up to now is        6.5 secs

     total energy              =     -43.09352685 Ry
     estimated scf accuracy    <       0.00000028 Ry

     iteration # 11     ecut=    45.00 Ry     beta= 0.50
     Davidson diagonalization with overlap
     ethr =  1.55E-09,  avg # of iterations =  2.0

     total cpu time spent up to now is        7.1 secs

     total energy              =     -43.09352694 Ry
     estimated scf accuracy    <          7.3E-09 Ry

     iteration # 12     ecut=    45.00 Ry     beta= 0.50
     Davidson diagonalization with overlap
     ethr =  4.03E-11,  avg # of iterations =  2.0

     total cpu time spent up to now is        7.7 secs

     total energy              =     -43.09352694 Ry
     estimated scf accuracy    <          7.7E-09 Ry

     iteration # 13     ecut=    45.00 Ry     beta= 0.50
     Davidson diagonalization with overlap
     ethr =  4.03E-11,  avg # of iterations =  2.0

     total cpu time spent up to now is        8.3 secs

     total energy              =     -43.09352694 Ry
     estimated scf accuracy    <          1.2E-10 Ry

     iteration # 14     ecut=    45.00 Ry     beta= 0.50
     Davidson diagonalization with overlap
     ethr =  6.42E-13,  avg # of iterations =  2.0

     total cpu time spent up to now is        8.9 secs

     End of self-consistent calculation

          k = 0.0000 0.0000 0.0000 ( 20326 PWs)   bands (ev):

   -20.7874 -14.3323 -14.3240 -11.7233 -11.0828  -8.3601  -8.3489  -6.7325
    -6.7290

     highest occupied level (ev):    -6.7290

!    total energy              =     -43.09352694 Ry
     estimated scf accuracy    <          9.8E-13 Ry

     The total energy is the sum of the following terms:
     one-electron contribution =    -138.16863134 Ry
     hartree contribution      =      71.33901131 Ry
     xc contribution           =     -17.11983784 Ry
     ewald contribution        =      40.85593093 Ry

     convergence has been achieved in  14 iterations

     Forces acting on atoms (cartesian axes, Ry/au):

     atom    1 type  1   force =     0.00579344   -0.00993620    0.00022492
     atom    2 type  1   force =    -0.01481619    0.00877601    0.01308115
     atom    3 type  1   force =     0.00194913    0.00194598   -0.01000331
     atom    4 type  2   force =    -0.00430976   -0.00118466    0.00394113
     atom    5 type  2   force =     0.00686528    0.00077620   -0.00091873
     atom    6 type  2   force =    -0.00529757    0.00265480    0.00021334
     atom    7 type  2   force =     0.00652104    0.00059585   -0.00132105
     atom    8 type  2   force =    -0.00638089   -0.00570709   -0.00495780
     atom    9 type  2   force =     0.00967552    0.00207911   -0.00025965

     Total force =     0.032671     Total SCF correction =     0.000001

     Writing output data file ./Cyclopropane.save/

     init_run     :      0.58s CPU      0.64s WALL (       1 calls)
     electrons    :      7.92s CPU      8.19s WALL (       1 calls)
     forces       :      0.38s CPU      0.40s WALL (       1 calls)

     Called by init_run:
     wfcinit      :      0.19s CPU      0.19s WALL (       1 calls)
     potinit      :      0.26s CPU      0.29s WALL (       1 calls)
     hinit0       :      0.09s CPU      0.11s WALL (       1 calls)

     Called by electrons:
     c_bands      :      4.00s CPU      4.04s WALL (      14 calls)
     sum_band     :      1.16s CPU      1.16s WALL (      14 calls)
     v_of_rho     :      2.31s CPU      2.53s WALL (      15 calls)
     mix_rho      :      0.53s CPU      0.55s WALL (      14 calls)

     Called by c_bands:
     init_us_2    :      0.07s CPU      0.07s WALL (      29 calls)
     regterg      :      3.91s CPU      3.95s WALL (      14 calls)

     Called by *egterg:
     rdiaghg      :      0.02s CPU      0.02s WALL (      41 calls)
     h_psi        :      3.73s CPU      3.77s WALL (      42 calls)
     g_psi        :      0.01s CPU      0.01s WALL (      27 calls)

     Called by h_psi:
     h_psi:calbec :      0.31s CPU      0.31s WALL (      42 calls)
     vloc_psi     :      3.18s CPU      3.21s WALL (      42 calls)
     add_vuspsi   :      0.24s CPU      0.24s WALL (      42 calls)

     General routines
     calbec       :      0.33s CPU      0.34s WALL (      46 calls)
     fft          :      1.67s CPU      1.72s WALL (     128 calls)
     ffts         :      0.19s CPU      0.19s WALL (      14 calls)
     fftw         :      3.06s CPU      3.09s WALL (     474 calls)

     Parallel routines

     PWSCF        :      8.96s CPU      9.32s WALL


   This run was terminated on:   7:21:51  24May2021            

=------------------------------------------------------------------------------=
   JOB DONE.
=------------------------------------------------------------------------------=
