
     Program PWSCF v.6.7GPU starts on 24May2021 at  7:22:17 

     This program is part of the open-source Quantum ESPRESSO suite
     for quantum simulation of materials; please cite
         "P. Giannozzi et al., J. Phys.:Condens. Matter 21 395502 (2009);
         "P. Giannozzi et al., J. Phys.:Condens. Matter 29 465901 (2017);
         "P. Giannozzi et al., J. Chem. Phys. 152 154105 (2020);
          URL http://www.quantum-espresso.org", 
     in publications or presentations arising from this work. More details at
     http://www.quantum-espresso.org/quote

     Parallel version (MPI), running on     4 processors

     MPI processes distributed on     1 nodes
     R & G space division:  proc/nbgrp/npool/nimage =       4
     Waiting for input...
     Reading input from standard input
     Message from routine read_cards :
     DEPRECATED: no units specified in CELL_PARAMETERS card

     Current dimensions of program PWSCF are:
     Max number of different atomic species (ntypx) = 10
     Max number of k-points (npk) =  40000
     Max angular momentum in pseudopotentials (lmaxx) =  3

     gamma-point specific algorithms are used

     Subspace diagonalization in iterative solution of the eigenvalue problem:
     one sub-group per band group will be used
     scalapack distributed-memory algorithm (size of sub-group:  2*  2 procs)


     Parallelization info
     --------------------
     sticks:   dense  smooth     PW     G-vecs:    dense   smooth      PW
     Min        1910    1910    473               125614   125614   15665
     Max        1912    1912    476               125624   125624   15668
     Sum        7645    7645   1901               502479   502479   62669

     Using Slab Decomposition



     bravais-lattice index     =            0
     lattice parameter (alat)  =      20.0000  a.u.
     unit-cell volume          =    8000.0000 (a.u.)^3
     number of atoms/cell      =            9
     number of atomic types    =            2
     number of electrons       =        18.00
     number of Kohn-Sham states=            9
     kinetic-energy cutoff     =      60.0000  Ry
     charge density cutoff     =     240.0000  Ry
     scf convergence threshold =      1.0E-12
     mixing beta               =       0.5000
     number of iterations used =            8  plain     mixing
     Exchange-correlation= PBE
                           (   1   4   3   4   0   0   0)

     celldm(1)=  20.000000  celldm(2)=   0.000000  celldm(3)=   0.000000
     celldm(4)=   0.000000  celldm(5)=   0.000000  celldm(6)=   0.000000

     crystal axes: (cart. coord. in units of alat)
               a(1) = (   1.000000   0.000000   0.000000 )  
               a(2) = (   0.000000   1.000000   0.000000 )  
               a(3) = (   0.000000   0.000000   1.000000 )  

     reciprocal axes: (cart. coord. in units 2 pi/alat)
               b(1) = (  1.000000  0.000000  0.000000 )  
               b(2) = (  0.000000  1.000000  0.000000 )  
               b(3) = (  0.000000  0.000000  1.000000 )  


     PseudoPot. # 1 for C  read from file:
     /home/ciga/builds/pseudo_potentials/C.upf
     MD5 check sum: d80ec9912146af6c4c1760317d1f95e9
     Pseudo is Norm-conserving + core correction, Zval =  4.0
     Generated using ONCVPSP code by D. R. Hamann
     Using radial grid of 1248 points,  4 beta functions with: 
                l(1) =   0
                l(2) =   0
                l(3) =   1
                l(4) =   1

     PseudoPot. # 2 for H  read from file:
     /home/ciga/builds/pseudo_potentials/H.upf
     MD5 check sum: 418cee52d0c413ae40802e6cc37ab9e3
     Pseudo is Norm-conserving, Zval =  1.0
     Generated using ONCVPSP code by D. R. Hamann
     Using radial grid of 1166 points,  3 beta functions with: 
                l(1) =   0
                l(2) =   0
                l(3) =   1

     atomic species   valence    mass     pseudopotential
        C              4.00    12.01070     C ( 1.00)
        H              1.00     1.00794     H ( 1.00)

     No symmetry found



   Cartesian axes

     site n.     atom                  positions (alat units)
         1           C   tau(   1) = (   0.0034462   0.0812489  -0.0172208  )
         2           C   tau(   2) = (  -0.0260474  -0.0533169  -0.0567132  )
         3           C   tau(   3) = (   0.0253626  -0.0268239   0.0743467  )
         4           H   tau(   4) = (  -0.0389670  -0.0359377   0.1534024  )
         5           H   tau(   5) = (   0.1214930  -0.0548224   0.0954693  )
         6           H   tau(   6) = (  -0.0752871   0.1439474   0.0012484  )
         7           H   tau(   7) = (   0.0847337   0.1275970  -0.0586375  )
         8           H   tau(   8) = (  -0.1258005  -0.0759317  -0.0597241  )
         9           H   tau(   9) = (   0.0298219  -0.1020343  -0.1272568  )

     number of k points=     1
                       cart. coord. in units 2pi/alat
        k(    1) = (   0.0000000   0.0000000   0.0000000), wk =   2.0000000

     Dense  grid:   251240 G-vectors     FFT dimensions: ( 100, 100, 100)

     Estimated max dynamical RAM per process >      57.77 MB

     Estimated total dynamical RAM >     231.09 MB

     Initial potential from superposition of free atoms

     starting charge   17.99981, renormalised to   18.00000

     negative rho (up, down):  3.173E-04 0.000E+00
     Starting wfcs are   18 randomized atomic wfcs

     total cpu time spent up to now is        0.9 secs

     Self-consistent Calculation

     iteration #  1     ecut=    60.00 Ry     beta= 0.50
     Davidson diagonalization with overlap
     ethr =  1.00E-02,  avg # of iterations =  2.0

     negative rho (up, down):  1.319E-04 0.000E+00

     total cpu time spent up to now is        1.7 secs

     total energy              =     -42.98089865 Ry
     estimated scf accuracy    <       1.06868739 Ry

     iteration #  2     ecut=    60.00 Ry     beta= 0.50
     Davidson diagonalization with overlap
     ethr =  5.94E-03,  avg # of iterations =  2.0

     negative rho (up, down):  5.906E-05 0.000E+00

     total cpu time spent up to now is        2.5 secs

     total energy              =     -43.16333294 Ry
     estimated scf accuracy    <       0.07800366 Ry

     iteration #  3     ecut=    60.00 Ry     beta= 0.50
     Davidson diagonalization with overlap
     ethr =  4.33E-04,  avg # of iterations =  1.0

     negative rho (up, down):  3.835E-06 0.000E+00

     total cpu time spent up to now is        3.1 secs

     total energy              =     -43.15898775 Ry
     estimated scf accuracy    <       0.01700156 Ry

     iteration #  4     ecut=    60.00 Ry     beta= 0.50
     Davidson diagonalization with overlap
     ethr =  9.45E-05,  avg # of iterations =  2.0

     negative rho (up, down):  1.974E-06 0.000E+00

     total cpu time spent up to now is        3.9 secs

     total energy              =     -43.16096930 Ry
     estimated scf accuracy    <       0.00300010 Ry

     iteration #  5     ecut=    60.00 Ry     beta= 0.50
     Davidson diagonalization with overlap
     ethr =  1.67E-05,  avg # of iterations =  3.0

     negative rho (up, down):  2.758E-07 0.000E+00

     total cpu time spent up to now is        4.7 secs

     total energy              =     -43.16151063 Ry
     estimated scf accuracy    <       0.00297871 Ry

     iteration #  6     ecut=    60.00 Ry     beta= 0.50
     Davidson diagonalization with overlap
     ethr =  1.65E-05,  avg # of iterations =  2.0

     total cpu time spent up to now is        5.5 secs

     total energy              =     -43.16219852 Ry
     estimated scf accuracy    <       0.00002304 Ry

     iteration #  7     ecut=    60.00 Ry     beta= 0.50
     Davidson diagonalization with overlap
     ethr =  1.28E-07,  avg # of iterations =  3.0

     total cpu time spent up to now is        6.3 secs

     total energy              =     -43.16220256 Ry
     estimated scf accuracy    <       0.00001070 Ry

     iteration #  8     ecut=    60.00 Ry     beta= 0.50
     Davidson diagonalization with overlap
     ethr =  5.95E-08,  avg # of iterations =  2.0

     total cpu time spent up to now is        7.1 secs

     total energy              =     -43.16220442 Ry
     estimated scf accuracy    <       0.00000064 Ry

     iteration #  9     ecut=    60.00 Ry     beta= 0.50
     Davidson diagonalization with overlap
     ethr =  3.54E-09,  avg # of iterations =  2.0

     total cpu time spent up to now is        8.0 secs

     total energy              =     -43.16220448 Ry
     estimated scf accuracy    <       0.00000102 Ry

     iteration # 10     ecut=    60.00 Ry     beta= 0.50
     Davidson diagonalization with overlap
     ethr =  3.54E-09,  avg # of iterations =  1.0

     total cpu time spent up to now is        8.7 secs

     total energy              =     -43.16220427 Ry
     estimated scf accuracy    <       0.00000041 Ry

     iteration # 11     ecut=    60.00 Ry     beta= 0.50
     Davidson diagonalization with overlap
     ethr =  2.27E-09,  avg # of iterations =  2.0

     total cpu time spent up to now is        9.5 secs

     total energy              =     -43.16220439 Ry
     estimated scf accuracy    <       0.00000001 Ry

     iteration # 12     ecut=    60.00 Ry     beta= 0.50
     Davidson diagonalization with overlap
     ethr =  6.14E-11,  avg # of iterations =  2.0

     total cpu time spent up to now is       10.3 secs

     total energy              =     -43.16220439 Ry
     estimated scf accuracy    <          9.3E-09 Ry

     iteration # 13     ecut=    60.00 Ry     beta= 0.50
     Davidson diagonalization with overlap
     ethr =  5.15E-11,  avg # of iterations =  2.0

     total cpu time spent up to now is       11.0 secs

     total energy              =     -43.16220439 Ry
     estimated scf accuracy    <          4.0E-10 Ry

     iteration # 14     ecut=    60.00 Ry     beta= 0.50
     Davidson diagonalization with overlap
     ethr =  2.20E-12,  avg # of iterations =  2.0

     total cpu time spent up to now is       11.8 secs

     total energy              =     -43.16220439 Ry
     estimated scf accuracy    <          6.3E-11 Ry

     iteration # 15     ecut=    60.00 Ry     beta= 0.50
     Davidson diagonalization with overlap
     ethr =  3.52E-13,  avg # of iterations =  3.0

     total cpu time spent up to now is       12.7 secs

     total energy              =     -43.16220439 Ry
     estimated scf accuracy    <          5.3E-11 Ry

     iteration # 16     ecut=    60.00 Ry     beta= 0.50
     Davidson diagonalization with overlap
     ethr =  2.95E-13,  avg # of iterations =  2.0

     total cpu time spent up to now is       13.4 secs

     total energy              =     -43.16220439 Ry
     estimated scf accuracy    <          5.0E-12 Ry

     iteration # 17     ecut=    60.00 Ry     beta= 0.50
     Davidson diagonalization with overlap
     ethr =  1.00E-13,  avg # of iterations =  2.0

     total cpu time spent up to now is       14.1 secs

     End of self-consistent calculation

          k = 0.0000 0.0000 0.0000 ( 31335 PWs)   bands (ev):

   -20.7376 -14.3029 -14.2946 -11.7242 -11.0763  -8.3694  -8.3585  -6.7387
    -6.7354

     highest occupied level (ev):    -6.7354

!    total energy              =     -43.16220439 Ry
     estimated scf accuracy    <          2.1E-13 Ry

     The total energy is the sum of the following terms:
     one-electron contribution =    -138.28661946 Ry
     hartree contribution      =      71.41317924 Ry
     xc contribution           =     -17.14469517 Ry
     ewald contribution        =      40.85593100 Ry

     convergence has been achieved in  17 iterations

     Forces acting on atoms (cartesian axes, Ry/au):

     atom    1 type  1   force =     0.00548101   -0.01910773    0.00219741
     atom    2 type  1   force =    -0.01172464    0.01463935    0.01939378
     atom    3 type  1   force =    -0.00077176    0.00512633   -0.01835613
     atom    4 type  2   force =    -0.00476007   -0.00135541    0.00484217
     atom    5 type  2   force =     0.00767271    0.00042674   -0.00043993
     atom    6 type  2   force =    -0.00595733    0.00346218    0.00030146
     atom    7 type  2   force =     0.00722910    0.00128807   -0.00174382
     atom    8 type  2   force =    -0.00716923   -0.00596053   -0.00512953
     atom    9 type  2   force =     0.01000023    0.00148100   -0.00106541

     Total force =     0.043818     Total SCF correction =     0.000000

     Writing output data file ./Cyclopropane.save/

     init_run     :      0.78s CPU      0.85s WALL (       1 calls)
     electrons    :     12.84s CPU     13.20s WALL (       1 calls)
     forces       :      0.54s CPU      0.57s WALL (       1 calls)

     Called by init_run:
     wfcinit      :      0.23s CPU      0.24s WALL (       1 calls)
     potinit      :      0.33s CPU      0.37s WALL (       1 calls)
     hinit0       :      0.14s CPU      0.14s WALL (       1 calls)

     Called by electrons:
     c_bands      :      6.16s CPU      6.21s WALL (      17 calls)
     sum_band     :      1.82s CPU      1.84s WALL (      17 calls)
     v_of_rho     :      3.73s CPU      4.03s WALL (      18 calls)
     mix_rho      :      1.17s CPU      1.19s WALL (      17 calls)

     Called by c_bands:
     init_us_2    :      0.13s CPU      0.14s WALL (      35 calls)
     regterg      :      6.00s CPU      6.05s WALL (      17 calls)

     Called by *egterg:
     rdiaghg      :      0.03s CPU      0.03s WALL (      52 calls)
     h_psi        :      5.54s CPU      5.59s WALL (      53 calls)
     g_psi        :      0.01s CPU      0.01s WALL (      35 calls)

     Called by h_psi:
     h_psi:calbec :      0.54s CPU      0.55s WALL (      53 calls)
     vloc_psi     :      4.52s CPU      4.56s WALL (      53 calls)
     add_vuspsi   :      0.45s CPU      0.45s WALL (      53 calls)

     General routines
     calbec       :      0.58s CPU      0.59s WALL (      57 calls)
     fft          :      2.66s CPU      2.73s WALL (     152 calls)
     ffts         :      0.28s CPU      0.29s WALL (      17 calls)
     fftw         :      4.21s CPU      4.25s WALL (     571 calls)

     Parallel routines

     PWSCF        :     14.24s CPU     14.72s WALL


   This run was terminated on:   7:22:32  24May2021            

=------------------------------------------------------------------------------=
   JOB DONE.
=------------------------------------------------------------------------------=
