
     Program PWSCF v.6.7GPU starts on 24May2021 at  4: 9:11 

     This program is part of the open-source Quantum ESPRESSO suite
     for quantum simulation of materials; please cite
         "P. Giannozzi et al., J. Phys.:Condens. Matter 21 395502 (2009);
         "P. Giannozzi et al., J. Phys.:Condens. Matter 29 465901 (2017);
         "P. Giannozzi et al., J. Chem. Phys. 152 154105 (2020);
          URL http://www.quantum-espresso.org", 
     in publications or presentations arising from this work. More details at
     http://www.quantum-espresso.org/quote

     Parallel version (MPI), running on     4 processors

     MPI processes distributed on     1 nodes
     R & G space division:  proc/nbgrp/npool/nimage =       4
     Waiting for input...
     Reading input from standard input
     Message from routine read_cards :
     DEPRECATED: no units specified in CELL_PARAMETERS card

     Current dimensions of program PWSCF are:
     Max number of different atomic species (ntypx) = 10
     Max number of k-points (npk) =  40000
     Max angular momentum in pseudopotentials (lmaxx) =  3

     gamma-point specific algorithms are used

     Subspace diagonalization in iterative solution of the eigenvalue problem:
     one sub-group per band group will be used
     scalapack distributed-memory algorithm (size of sub-group:  2*  2 procs)


     Parallelization info
     --------------------
     sticks:   dense  smooth     PW     G-vecs:    dense   smooth      PW
     Min        2386    2386    595               175366   175366   21912
     Max        2388    2388    598               175372   175372   21918
     Sum        9549    9549   2385               701475   701475   87655

     Using Slab Decomposition



     bravais-lattice index     =            0
     lattice parameter (alat)  =      20.0000  a.u.
     unit-cell volume          =    8000.0000 (a.u.)^3
     number of atoms/cell      =           11
     number of atomic types    =            2
     number of electrons       =        26.00
     number of Kohn-Sham states=           13
     kinetic-energy cutoff     =      75.0000  Ry
     charge density cutoff     =     300.0000  Ry
     scf convergence threshold =      1.0E-12
     mixing beta               =       0.5000
     number of iterations used =            8  plain     mixing
     Exchange-correlation= PBE
                           (   1   4   3   4   0   0   0)

     celldm(1)=  20.000000  celldm(2)=   0.000000  celldm(3)=   0.000000
     celldm(4)=   0.000000  celldm(5)=   0.000000  celldm(6)=   0.000000

     crystal axes: (cart. coord. in units of alat)
               a(1) = (   1.000000   0.000000   0.000000 )  
               a(2) = (   0.000000   1.000000   0.000000 )  
               a(3) = (   0.000000   0.000000   1.000000 )  

     reciprocal axes: (cart. coord. in units 2 pi/alat)
               b(1) = (  1.000000  0.000000  0.000000 )  
               b(2) = (  0.000000  1.000000  0.000000 )  
               b(3) = (  0.000000  0.000000  1.000000 )  


     PseudoPot. # 1 for C  read from file:
     /home/ciga/builds/pseudo_potentials/C.upf
     MD5 check sum: d80ec9912146af6c4c1760317d1f95e9
     Pseudo is Norm-conserving + core correction, Zval =  4.0
     Generated using ONCVPSP code by D. R. Hamann
     Using radial grid of 1248 points,  4 beta functions with: 
                l(1) =   0
                l(2) =   0
                l(3) =   1
                l(4) =   1

     PseudoPot. # 2 for H  read from file:
     /home/ciga/builds/pseudo_potentials/H.upf
     MD5 check sum: 418cee52d0c413ae40802e6cc37ab9e3
     Pseudo is Norm-conserving, Zval =  1.0
     Generated using ONCVPSP code by D. R. Hamann
     Using radial grid of 1166 points,  3 beta functions with: 
                l(1) =   0
                l(2) =   0
                l(3) =   1

     atomic species   valence    mass     pseudopotential
        C              4.00    12.01070     C ( 1.00)
        H              1.00     1.00794     H ( 1.00)

     No symmetry found



   Cartesian axes

     site n.     atom                  positions (alat units)
         1           C   tau(   1) = (   0.0694474   0.0000000   0.0000000  )
         2           C   tau(   2) = (  -0.0694474   0.0000000   0.0000000  )
         3           C   tau(   3) = (   0.1115657   0.0000000   0.1196012  )
         4           C   tau(   4) = (  -0.1115657   0.0000000   0.1196012  )
         5           C   tau(   5) = (  -0.0002921   0.0000000   0.2087482  )
         6           H   tau(   6) = (   0.2105633   0.0000000   0.1479990  )
         7           H   tau(   7) = (   0.1289402   0.0000000  -0.0840688  )
         8           H   tau(   8) = (  -0.1289700   0.0000000  -0.0840477  )
         9           H   tau(   9) = (  -0.2105947   0.0000000   0.1478893  )
        10           H   tau(  10) = (  -0.0001026   0.0836626   0.2688106  )
        11           H   tau(  11) = (  -0.0005388  -0.0834139   0.2691554  )

     number of k points=     1
                       cart. coord. in units 2pi/alat
        k(    1) = (   0.0000000   0.0000000   0.0000000), wk =   2.0000000

     Dense  grid:   350738 G-vectors     FFT dimensions: ( 120, 120, 120)

     Estimated max dynamical RAM per process >      92.20 MB

     Estimated total dynamical RAM >     368.81 MB

     Initial potential from superposition of free atoms

     starting charge   25.99972, renormalised to   26.00000

     negative rho (up, down):  1.120E-04 0.000E+00
     Starting wfcs are   26 randomized atomic wfcs

     total cpu time spent up to now is        1.6 secs

     Self-consistent Calculation

     iteration #  1     ecut=    75.00 Ry     beta= 0.50
     Davidson diagonalization with overlap
     ethr =  1.00E-02,  avg # of iterations =  2.0

     negative rho (up, down):  3.780E-05 0.000E+00

     total cpu time spent up to now is        3.3 secs

     total energy              =     -66.99884249 Ry
     estimated scf accuracy    <       1.32470523 Ry

     iteration #  2     ecut=    75.00 Ry     beta= 0.50
     Davidson diagonalization with overlap
     ethr =  5.10E-03,  avg # of iterations =  2.0

     negative rho (up, down):  1.442E-05 0.000E+00

     total cpu time spent up to now is        5.0 secs

     total energy              =     -67.20794940 Ry
     estimated scf accuracy    <       0.09696298 Ry

     iteration #  3     ecut=    75.00 Ry     beta= 0.50
     Davidson diagonalization with overlap
     ethr =  3.73E-04,  avg # of iterations =  2.0

     negative rho (up, down):  1.272E-06 0.000E+00

     total cpu time spent up to now is        6.4 secs

     total energy              =     -67.20717643 Ry
     estimated scf accuracy    <       0.01796515 Ry

     iteration #  4     ecut=    75.00 Ry     beta= 0.50
     Davidson diagonalization with overlap
     ethr =  6.91E-05,  avg # of iterations =  2.0

     negative rho (up, down):  2.221E-07 0.000E+00

     total cpu time spent up to now is        8.0 secs

     total energy              =     -67.20977211 Ry
     estimated scf accuracy    <       0.00214123 Ry

     iteration #  5     ecut=    75.00 Ry     beta= 0.50
     Davidson diagonalization with overlap
     ethr =  8.24E-06,  avg # of iterations =  3.0

     negative rho (up, down):  9.336E-08 0.000E+00

     total cpu time spent up to now is        9.8 secs

     total energy              =     -67.21040250 Ry
     estimated scf accuracy    <       0.00142125 Ry

     iteration #  6     ecut=    75.00 Ry     beta= 0.50
     Davidson diagonalization with overlap
     ethr =  5.47E-06,  avg # of iterations =  2.0

     total cpu time spent up to now is       11.5 secs

     total energy              =     -67.21068820 Ry
     estimated scf accuracy    <       0.00000941 Ry

     iteration #  7     ecut=    75.00 Ry     beta= 0.50
     Davidson diagonalization with overlap
     ethr =  3.62E-08,  avg # of iterations =  6.0

     total cpu time spent up to now is       14.0 secs

     total energy              =     -67.21070142 Ry
     estimated scf accuracy    <       0.00001705 Ry

     iteration #  8     ecut=    75.00 Ry     beta= 0.50
     Davidson diagonalization with overlap
     ethr =  3.62E-08,  avg # of iterations =  2.0

     total cpu time spent up to now is       15.7 secs

     total energy              =     -67.21070251 Ry
     estimated scf accuracy    <       0.00000157 Ry

     iteration #  9     ecut=    75.00 Ry     beta= 0.50
     Davidson diagonalization with overlap
     ethr =  6.03E-09,  avg # of iterations =  2.0

     total cpu time spent up to now is       17.4 secs

     total energy              =     -67.21070294 Ry
     estimated scf accuracy    <       0.00000005 Ry

     iteration # 10     ecut=    75.00 Ry     beta= 0.50
     Davidson diagonalization with overlap
     ethr =  2.05E-10,  avg # of iterations =  3.0

     total cpu time spent up to now is       19.3 secs

     total energy              =     -67.21070296 Ry
     estimated scf accuracy    <          6.6E-09 Ry

     iteration # 11     ecut=    75.00 Ry     beta= 0.50
     Davidson diagonalization with overlap
     ethr =  2.53E-11,  avg # of iterations =  5.0

     total cpu time spent up to now is       21.2 secs

     total energy              =     -67.21070296 Ry
     estimated scf accuracy    <          1.9E-09 Ry

     iteration # 12     ecut=    75.00 Ry     beta= 0.50
     Davidson diagonalization with overlap
     ethr =  7.20E-12,  avg # of iterations =  2.0

     total cpu time spent up to now is       22.8 secs

     total energy              =     -67.21070296 Ry
     estimated scf accuracy    <          7.5E-10 Ry

     iteration # 13     ecut=    75.00 Ry     beta= 0.50
     Davidson diagonalization with overlap
     ethr =  2.88E-12,  avg # of iterations =  2.0

     total cpu time spent up to now is       24.5 secs

     total energy              =     -67.21070296 Ry
     estimated scf accuracy    <          1.8E-11 Ry

     iteration # 14     ecut=    75.00 Ry     beta= 0.50
     Davidson diagonalization with overlap
     ethr =  1.00E-13,  avg # of iterations =  4.0

     total cpu time spent up to now is       26.3 secs

     total energy              =     -67.21070296 Ry
     estimated scf accuracy    <          3.7E-12 Ry

     iteration # 15     ecut=    75.00 Ry     beta= 0.50
     Davidson diagonalization with overlap
     ethr =  1.00E-13,  avg # of iterations =  2.0

     total cpu time spent up to now is       27.6 secs

     End of self-consistent calculation

          k = 0.0000 0.0000 0.0000 ( 43828 PWs)   bands (ev):

   -20.8043 -16.9029 -16.8673 -13.0156 -12.4007 -12.1246 -10.3293  -9.0596
    -8.5419  -8.1951  -8.1008  -6.9601  -4.9349

     highest occupied level (ev):    -4.9349

!    total energy              =     -67.21070296 Ry
     estimated scf accuracy    <          1.1E-13 Ry

     The total energy is the sum of the following terms:
     one-electron contribution =    -229.69130971 Ry
     hartree contribution      =     118.33467534 Ry
     xc contribution           =     -25.57765357 Ry
     ewald contribution        =      69.72358497 Ry

     convergence has been achieved in  15 iterations

     Forces acting on atoms (cartesian axes, Ry/au):

     atom    1 type  1   force =    -0.00919031    0.00002970   -0.02332289
     atom    2 type  1   force =     0.00910607   -0.00004864   -0.02367323
     atom    3 type  1   force =     0.00499017   -0.00052031    0.02267605
     atom    4 type  1   force =    -0.00832700    0.00017526    0.02032265
     atom    5 type  1   force =     0.00330055    0.00022684   -0.03204878
     atom    6 type  2   force =    -0.00616079    0.00001994    0.00390315
     atom    7 type  2   force =    -0.00408880    0.00005673    0.00086684
     atom    8 type  2   force =     0.00414451   -0.00000810    0.00083389
     atom    9 type  2   force =     0.00600950   -0.00000915    0.00376690
     atom   10 type  2   force =    -0.00021570    0.00858110    0.01344652
     atom   11 type  2   force =     0.00043179   -0.00850336    0.01322891

     Total force =     0.063027     Total SCF correction =     0.000000

     Writing output data file ./Cyclopentadiene.save/

     init_run     :      1.45s CPU      1.54s WALL (       1 calls)
     electrons    :     25.52s CPU     26.05s WALL (       1 calls)
     forces       :      0.89s CPU      0.93s WALL (       1 calls)

     Called by init_run:
     wfcinit      :      0.62s CPU      0.63s WALL (       1 calls)
     potinit      :      0.51s CPU      0.56s WALL (       1 calls)
     hinit0       :      0.18s CPU      0.20s WALL (       1 calls)

     Called by electrons:
     c_bands      :     15.28s CPU     15.38s WALL (      15 calls)
     sum_band     :      3.37s CPU      3.39s WALL (      15 calls)
     v_of_rho     :      5.53s CPU      5.97s WALL (      16 calls)
     mix_rho      :      1.51s CPU      1.52s WALL (      15 calls)

     Called by c_bands:
     init_us_2    :      0.19s CPU      0.20s WALL (      31 calls)
     regterg      :     15.03s CPU     15.13s WALL (      15 calls)

     Called by *egterg:
     rdiaghg      :      0.04s CPU      0.04s WALL (      56 calls)
     h_psi        :     13.57s CPU     13.66s WALL (      57 calls)
     g_psi        :      0.03s CPU      0.03s WALL (      41 calls)

     Called by h_psi:
     h_psi:calbec :      1.34s CPU      1.34s WALL (      57 calls)
     vloc_psi     :     11.06s CPU     11.15s WALL (      57 calls)
     add_vuspsi   :      1.10s CPU      1.10s WALL (      57 calls)

     General routines
     calbec       :      1.45s CPU      1.46s WALL (      61 calls)
     fft          :      3.85s CPU      3.92s WALL (     136 calls)
     ffts         :      0.42s CPU      0.42s WALL (      15 calls)
     fftw         :     10.34s CPU     10.41s WALL (     759 calls)

     Parallel routines

     PWSCF        :     27.95s CPU     28.62s WALL


   This run was terminated on:   4: 9:40  24May2021            

=------------------------------------------------------------------------------=
   JOB DONE.
=------------------------------------------------------------------------------=
