
     Program PWSCF v.6.7GPU starts on 24May2021 at  6:33:28 

     This program is part of the open-source Quantum ESPRESSO suite
     for quantum simulation of materials; please cite
         "P. Giannozzi et al., J. Phys.:Condens. Matter 21 395502 (2009);
         "P. Giannozzi et al., J. Phys.:Condens. Matter 29 465901 (2017);
         "P. Giannozzi et al., J. Chem. Phys. 152 154105 (2020);
          URL http://www.quantum-espresso.org", 
     in publications or presentations arising from this work. More details at
     http://www.quantum-espresso.org/quote

     Parallel version (MPI), running on     4 processors

     MPI processes distributed on     1 nodes
     R & G space division:  proc/nbgrp/npool/nimage =       4
     Waiting for input...
     Reading input from standard input
     Message from routine read_cards :
     DEPRECATED: no units specified in CELL_PARAMETERS card

     Current dimensions of program PWSCF are:
     Max number of different atomic species (ntypx) = 10
     Max number of k-points (npk) =  40000
     Max angular momentum in pseudopotentials (lmaxx) =  3

     gamma-point specific algorithms are used

     Subspace diagonalization in iterative solution of the eigenvalue problem:
     one sub-group per band group will be used
     scalapack distributed-memory algorithm (size of sub-group:  2*  2 procs)


     Parallelization info
     --------------------
     sticks:   dense  smooth     PW     G-vecs:    dense   smooth      PW
     Min        2230    2230    557               158211   158211   19778
     Max        2234    2234    560               158214   158214   19781
     Sum        8929    8929   2233               632851   632851   79117

     Using Slab Decomposition



     bravais-lattice index     =            0
     lattice parameter (alat)  =      20.0000  a.u.
     unit-cell volume          =    8000.0000 (a.u.)^3
     number of atoms/cell      =            8
     number of atomic types    =            2
     number of electrons       =        14.00
     number of Kohn-Sham states=            7
     kinetic-energy cutoff     =      70.0000  Ry
     charge density cutoff     =     280.0000  Ry
     scf convergence threshold =      1.0E-12
     mixing beta               =       0.5000
     number of iterations used =            8  plain     mixing
     Exchange-correlation= PBE
                           (   1   4   3   4   0   0   0)

     celldm(1)=  20.000000  celldm(2)=   0.000000  celldm(3)=   0.000000
     celldm(4)=   0.000000  celldm(5)=   0.000000  celldm(6)=   0.000000

     crystal axes: (cart. coord. in units of alat)
               a(1) = (   1.000000   0.000000   0.000000 )  
               a(2) = (   0.000000   1.000000   0.000000 )  
               a(3) = (   0.000000   0.000000   1.000000 )  

     reciprocal axes: (cart. coord. in units 2 pi/alat)
               b(1) = (  1.000000  0.000000  0.000000 )  
               b(2) = (  0.000000  1.000000  0.000000 )  
               b(3) = (  0.000000  0.000000  1.000000 )  


     PseudoPot. # 1 for C  read from file:
     /home/ciga/builds/pseudo_potentials/C.upf
     MD5 check sum: d80ec9912146af6c4c1760317d1f95e9
     Pseudo is Norm-conserving + core correction, Zval =  4.0
     Generated using ONCVPSP code by D. R. Hamann
     Using radial grid of 1248 points,  4 beta functions with: 
                l(1) =   0
                l(2) =   0
                l(3) =   1
                l(4) =   1

     PseudoPot. # 2 for H  read from file:
     /home/ciga/builds/pseudo_potentials/H.upf
     MD5 check sum: 418cee52d0c413ae40802e6cc37ab9e3
     Pseudo is Norm-conserving, Zval =  1.0
     Generated using ONCVPSP code by D. R. Hamann
     Using radial grid of 1166 points,  3 beta functions with: 
                l(1) =   0
                l(2) =   0
                l(3) =   1

     atomic species   valence    mass     pseudopotential
        C              4.00    12.01070     C ( 1.00)
        H              1.00     1.00794     H ( 1.00)

     No symmetry found



   Cartesian axes

     site n.     atom                  positions (alat units)
         1           C   tau(   1) = (   0.0000094   0.0723482   0.0000000  )
         2           C   tau(   2) = (  -0.0000094  -0.0726883   0.0000000  )
         3           H   tau(   3) = (  -0.0127454   0.1096798  -0.0955438  )
         4           H   tau(   4) = (  -0.0763618   0.1096881   0.0588057  )
         5           H   tau(   5) = (   0.0891345   0.1096665   0.0367290  )
         6           H   tau(   6) = (   0.0763778  -0.1100283  -0.0587847  )
         7           H   tau(   7) = (   0.0127177  -0.1100199   0.0955475  )
         8           H   tau(   8) = (  -0.0891232  -0.1100066  -0.0367565  )

     number of k points=     1
                       cart. coord. in units 2pi/alat
        k(    1) = (   0.0000000   0.0000000   0.0000000), wk =   2.0000000

     Dense  grid:   316426 G-vectors     FFT dimensions: ( 108, 108, 108)

     Estimated max dynamical RAM per process >      69.93 MB

     Estimated total dynamical RAM >     279.71 MB

     Initial potential from superposition of free atoms

     starting charge   13.99986, renormalised to   14.00000

     negative rho (up, down):  1.439E-04 0.000E+00
     Starting wfcs are   14 randomized atomic wfcs

     total cpu time spent up to now is        1.1 secs

     Self-consistent Calculation

     iteration #  1     ecut=    70.00 Ry     beta= 0.50
     Davidson diagonalization with overlap
     ethr =  1.00E-02,  avg # of iterations =  2.0

     negative rho (up, down):  5.542E-05 0.000E+00

     total cpu time spent up to now is        2.1 secs

     total energy              =     -31.04279753 Ry
     estimated scf accuracy    <       1.01214760 Ry

     iteration #  2     ecut=    70.00 Ry     beta= 0.50
     Davidson diagonalization with overlap
     ethr =  7.23E-03,  avg # of iterations =  2.0

     negative rho (up, down):  2.314E-05 0.000E+00

     total cpu time spent up to now is        3.1 secs

     total energy              =     -31.22553225 Ry
     estimated scf accuracy    <       0.07048038 Ry

     iteration #  3     ecut=    70.00 Ry     beta= 0.50
     Davidson diagonalization with overlap
     ethr =  5.03E-04,  avg # of iterations =  1.0

     negative rho (up, down):  1.461E-06 0.000E+00

     total cpu time spent up to now is        3.9 secs

     total energy              =     -31.21959891 Ry
     estimated scf accuracy    <       0.01723764 Ry

     iteration #  4     ecut=    70.00 Ry     beta= 0.50
     Davidson diagonalization with overlap
     ethr =  1.23E-04,  avg # of iterations =  2.0

     negative rho (up, down):  1.067E-06 0.000E+00

     total cpu time spent up to now is        4.9 secs

     total energy              =     -31.22117559 Ry
     estimated scf accuracy    <       0.00298801 Ry

     iteration #  5     ecut=    70.00 Ry     beta= 0.50
     Davidson diagonalization with overlap
     ethr =  2.13E-05,  avg # of iterations =  2.0

     negative rho (up, down):  2.109E-07 0.000E+00

     total cpu time spent up to now is        5.9 secs

     total energy              =     -31.22189859 Ry
     estimated scf accuracy    <       0.00183275 Ry

     iteration #  6     ecut=    70.00 Ry     beta= 0.50
     Davidson diagonalization with overlap
     ethr =  1.31E-05,  avg # of iterations =  2.0

     negative rho (up, down):  1.230E-08 0.000E+00

     total cpu time spent up to now is        6.9 secs

     total energy              =     -31.22226350 Ry
     estimated scf accuracy    <       0.00000630 Ry

     iteration #  7     ecut=    70.00 Ry     beta= 0.50
     Davidson diagonalization with overlap
     ethr =  4.50E-08,  avg # of iterations =  3.0

     total cpu time spent up to now is        8.0 secs

     total energy              =     -31.22227141 Ry
     estimated scf accuracy    <       0.00000108 Ry

     iteration #  8     ecut=    70.00 Ry     beta= 0.50
     Davidson diagonalization with overlap
     ethr =  7.69E-09,  avg # of iterations =  2.0

     total cpu time spent up to now is        9.0 secs

     total energy              =     -31.22227163 Ry
     estimated scf accuracy    <       0.00000022 Ry

     iteration #  9     ecut=    70.00 Ry     beta= 0.50
     Davidson diagonalization with overlap
     ethr =  1.54E-09,  avg # of iterations =  3.0

     total cpu time spent up to now is       10.1 secs

     total energy              =     -31.22227159 Ry
     estimated scf accuracy    <       0.00000050 Ry

     iteration # 10     ecut=    70.00 Ry     beta= 0.50
     Davidson diagonalization with overlap
     ethr =  1.54E-09,  avg # of iterations =  2.0

     total cpu time spent up to now is       11.1 secs

     total energy              =     -31.22227158 Ry
     estimated scf accuracy    <       0.00000010 Ry

     iteration # 11     ecut=    70.00 Ry     beta= 0.50
     Davidson diagonalization with overlap
     ethr =  7.12E-10,  avg # of iterations =  2.0

     total cpu time spent up to now is       12.1 secs

     total energy              =     -31.22227159 Ry
     estimated scf accuracy    <          8.8E-10 Ry

     iteration # 12     ecut=    70.00 Ry     beta= 0.50
     Davidson diagonalization with overlap
     ethr =  6.28E-12,  avg # of iterations =  3.0

     total cpu time spent up to now is       13.2 secs

     total energy              =     -31.22227159 Ry
     estimated scf accuracy    <          7.6E-10 Ry

     iteration # 13     ecut=    70.00 Ry     beta= 0.50
     Davidson diagonalization with overlap
     ethr =  5.43E-12,  avg # of iterations =  1.0

     total cpu time spent up to now is       14.0 secs

     total energy              =     -31.22227159 Ry
     estimated scf accuracy    <          3.4E-10 Ry

     iteration # 14     ecut=    70.00 Ry     beta= 0.50
     Davidson diagonalization with overlap
     ethr =  2.41E-12,  avg # of iterations =  3.0

     total cpu time spent up to now is       15.1 secs

     total energy              =     -31.22227159 Ry
     estimated scf accuracy    <          4.3E-11 Ry

     iteration # 15     ecut=    70.00 Ry     beta= 0.50
     Davidson diagonalization with overlap
     ethr =  3.07E-13,  avg # of iterations =  1.0

     total cpu time spent up to now is       16.0 secs

     total energy              =     -31.22227159 Ry
     estimated scf accuracy    <          2.6E-11 Ry

     iteration # 16     ecut=    70.00 Ry     beta= 0.50
     Davidson diagonalization with overlap
     ethr =  1.88E-13,  avg # of iterations =  2.0

     total cpu time spent up to now is       17.0 secs

     total energy              =     -31.22227159 Ry
     estimated scf accuracy    <          1.7E-12 Ry

     iteration # 17     ecut=    70.00 Ry     beta= 0.50
     Davidson diagonalization with overlap
     ethr =  1.00E-13,  avg # of iterations =  1.0

     total cpu time spent up to now is       17.7 secs

     End of self-consistent calculation

          k = 0.0000 0.0000 0.0000 ( 39559 PWs)   bands (ev):

   -18.2837 -14.8093 -10.2777 -10.2769  -8.6047  -7.9213  -7.9205

     highest occupied level (ev):    -7.9205

!    total energy              =     -31.22227159 Ry
     estimated scf accuracy    <          3.9E-14 Ry

     The total energy is the sum of the following terms:
     one-electron contribution =     -91.53036931 Ry
     hartree contribution      =      47.48467089 Ry
     xc contribution           =     -12.87970882 Ry
     ewald contribution        =      25.70313565 Ry

     convergence has been achieved in  17 iterations

     Forces acting on atoms (cartesian axes, Ry/au):

     atom    1 type  1   force =    -0.00002639   -0.01089267   -0.00001963
     atom    2 type  1   force =     0.00002517    0.01089292    0.00001459
     atom    3 type  2   force =    -0.00045361    0.00221206   -0.00360079
     atom    4 type  2   force =    -0.00286234    0.00221296    0.00223490
     atom    5 type  2   force =     0.00334083    0.00222297    0.00138393
     atom    6 type  2   force =     0.00286454   -0.00221252   -0.00223457
     atom    7 type  2   force =     0.00045598   -0.00221337    0.00359926
     atom    8 type  2   force =    -0.00334419   -0.00222234   -0.00137769

     Total force =     0.018592     Total SCF correction =     0.000000

     Writing output data file ./Ethane.save/

     init_run     :      0.97s CPU      1.05s WALL (       1 calls)
     electrons    :     16.26s CPU     16.64s WALL (       1 calls)
     forces       :      0.64s CPU      0.68s WALL (       1 calls)

     Called by init_run:
     wfcinit      :      0.28s CPU      0.29s WALL (       1 calls)
     potinit      :      0.41s CPU      0.46s WALL (       1 calls)
     hinit0       :      0.16s CPU      0.18s WALL (       1 calls)

     Called by electrons:
     c_bands      :      7.33s CPU      7.37s WALL (      17 calls)
     sum_band     :      2.34s CPU      2.36s WALL (      17 calls)
     v_of_rho     :      5.12s CPU      5.46s WALL (      18 calls)
     mix_rho      :      1.55s CPU      1.57s WALL (      17 calls)

     Called by c_bands:
     init_us_2    :      0.14s CPU      0.15s WALL (      35 calls)
     regterg      :      7.16s CPU      7.20s WALL (      17 calls)

     Called by *egterg:
     rdiaghg      :      0.02s CPU      0.02s WALL (      51 calls)
     h_psi        :      6.84s CPU      6.88s WALL (      52 calls)
     g_psi        :      0.01s CPU      0.01s WALL (      34 calls)

     Called by h_psi:
     h_psi:calbec :      0.48s CPU      0.48s WALL (      52 calls)
     vloc_psi     :      5.95s CPU      5.99s WALL (      52 calls)
     add_vuspsi   :      0.38s CPU      0.38s WALL (      52 calls)

     General routines
     calbec       :      0.51s CPU      0.52s WALL (      56 calls)
     fft          :      3.78s CPU      3.86s WALL (     152 calls)
     ffts         :      0.44s CPU      0.44s WALL (      17 calls)
     fftw         :      5.85s CPU      5.89s WALL (     456 calls)

     Parallel routines

     PWSCF        :     17.96s CPU     18.47s WALL


   This run was terminated on:   6:33:47  24May2021            

=------------------------------------------------------------------------------=
   JOB DONE.
=------------------------------------------------------------------------------=
