
     Program PWSCF v.6.7GPU starts on 24May2021 at  6:34:33 

     This program is part of the open-source Quantum ESPRESSO suite
     for quantum simulation of materials; please cite
         "P. Giannozzi et al., J. Phys.:Condens. Matter 21 395502 (2009);
         "P. Giannozzi et al., J. Phys.:Condens. Matter 29 465901 (2017);
         "P. Giannozzi et al., J. Chem. Phys. 152 154105 (2020);
          URL http://www.quantum-espresso.org", 
     in publications or presentations arising from this work. More details at
     http://www.quantum-espresso.org/quote

     Parallel version (MPI), running on     4 processors

     MPI processes distributed on     1 nodes
     R & G space division:  proc/nbgrp/npool/nimage =       4
     Waiting for input...
     Reading input from standard input
     Message from routine read_cards :
     DEPRECATED: no units specified in CELL_PARAMETERS card

     Current dimensions of program PWSCF are:
     Max number of different atomic species (ntypx) = 10
     Max number of k-points (npk) =  40000
     Max angular momentum in pseudopotentials (lmaxx) =  3

     gamma-point specific algorithms are used

     Subspace diagonalization in iterative solution of the eigenvalue problem:
     one sub-group per band group will be used
     scalapack distributed-memory algorithm (size of sub-group:  2*  2 procs)


     Parallelization info
     --------------------
     sticks:   dense  smooth     PW     G-vecs:    dense   smooth      PW
     Min        2700    2700    675               211636   211636   26505
     Max        2704    2704    678               211641   211641   26514
     Sum       10805   10805   2709               846553   846553  106047

     Using Slab Decomposition



     bravais-lattice index     =            0
     lattice parameter (alat)  =      20.0000  a.u.
     unit-cell volume          =    8000.0000 (a.u.)^3
     number of atoms/cell      =            8
     number of atomic types    =            2
     number of electrons       =        14.00
     number of Kohn-Sham states=            7
     kinetic-energy cutoff     =      85.0000  Ry
     charge density cutoff     =     340.0000  Ry
     scf convergence threshold =      1.0E-12
     mixing beta               =       0.5000
     number of iterations used =            8  plain     mixing
     Exchange-correlation= PBE
                           (   1   4   3   4   0   0   0)

     celldm(1)=  20.000000  celldm(2)=   0.000000  celldm(3)=   0.000000
     celldm(4)=   0.000000  celldm(5)=   0.000000  celldm(6)=   0.000000

     crystal axes: (cart. coord. in units of alat)
               a(1) = (   1.000000   0.000000   0.000000 )  
               a(2) = (   0.000000   1.000000   0.000000 )  
               a(3) = (   0.000000   0.000000   1.000000 )  

     reciprocal axes: (cart. coord. in units 2 pi/alat)
               b(1) = (  1.000000  0.000000  0.000000 )  
               b(2) = (  0.000000  1.000000  0.000000 )  
               b(3) = (  0.000000  0.000000  1.000000 )  


     PseudoPot. # 1 for C  read from file:
     /home/ciga/builds/pseudo_potentials/C.upf
     MD5 check sum: d80ec9912146af6c4c1760317d1f95e9
     Pseudo is Norm-conserving + core correction, Zval =  4.0
     Generated using ONCVPSP code by D. R. Hamann
     Using radial grid of 1248 points,  4 beta functions with: 
                l(1) =   0
                l(2) =   0
                l(3) =   1
                l(4) =   1

     PseudoPot. # 2 for H  read from file:
     /home/ciga/builds/pseudo_potentials/H.upf
     MD5 check sum: 418cee52d0c413ae40802e6cc37ab9e3
     Pseudo is Norm-conserving, Zval =  1.0
     Generated using ONCVPSP code by D. R. Hamann
     Using radial grid of 1166 points,  3 beta functions with: 
                l(1) =   0
                l(2) =   0
                l(3) =   1

     atomic species   valence    mass     pseudopotential
        C              4.00    12.01070     C ( 1.00)
        H              1.00     1.00794     H ( 1.00)

     No symmetry found



   Cartesian axes

     site n.     atom                  positions (alat units)
         1           C   tau(   1) = (   0.0000094   0.0723482   0.0000000  )
         2           C   tau(   2) = (  -0.0000094  -0.0726883   0.0000000  )
         3           H   tau(   3) = (  -0.0127454   0.1096798  -0.0955438  )
         4           H   tau(   4) = (  -0.0763618   0.1096881   0.0588057  )
         5           H   tau(   5) = (   0.0891345   0.1096665   0.0367290  )
         6           H   tau(   6) = (   0.0763778  -0.1100283  -0.0587847  )
         7           H   tau(   7) = (   0.0127177  -0.1100199   0.0955475  )
         8           H   tau(   8) = (  -0.0891232  -0.1100066  -0.0367565  )

     number of k points=     1
                       cart. coord. in units 2pi/alat
        k(    1) = (   0.0000000   0.0000000   0.0000000), wk =   2.0000000

     Dense  grid:   423277 G-vectors     FFT dimensions: ( 120, 120, 120)

     Estimated max dynamical RAM per process >      94.10 MB

     Estimated total dynamical RAM >     376.39 MB

     Initial potential from superposition of free atoms

     starting charge   13.99986, renormalised to   14.00000

     negative rho (up, down):  3.083E-05 0.000E+00
     Starting wfcs are   14 randomized atomic wfcs

     total cpu time spent up to now is        1.4 secs

     Self-consistent Calculation

     iteration #  1     ecut=    85.00 Ry     beta= 0.50
     Davidson diagonalization with overlap
     ethr =  1.00E-02,  avg # of iterations =  2.0

     negative rho (up, down):  6.923E-06 0.000E+00

     total cpu time spent up to now is        2.7 secs

     total energy              =     -31.04334244 Ry
     estimated scf accuracy    <       1.01442446 Ry

     iteration #  2     ecut=    85.00 Ry     beta= 0.50
     Davidson diagonalization with overlap
     ethr =  7.25E-03,  avg # of iterations =  2.0

     negative rho (up, down):  2.026E-06 0.000E+00

     total cpu time spent up to now is        3.9 secs

     total energy              =     -31.22693630 Ry
     estimated scf accuracy    <       0.07054282 Ry

     iteration #  3     ecut=    85.00 Ry     beta= 0.50
     Davidson diagonalization with overlap
     ethr =  5.04E-04,  avg # of iterations =  1.0

     negative rho (up, down):  1.206E-07 0.000E+00

     total cpu time spent up to now is        4.9 secs

     total energy              =     -31.22099883 Ry
     estimated scf accuracy    <       0.01727292 Ry

     iteration #  4     ecut=    85.00 Ry     beta= 0.50
     Davidson diagonalization with overlap
     ethr =  1.23E-04,  avg # of iterations =  2.0

     negative rho (up, down):  5.778E-08 0.000E+00

     total cpu time spent up to now is        6.1 secs

     total energy              =     -31.22257822 Ry
     estimated scf accuracy    <       0.00301639 Ry

     iteration #  5     ecut=    85.00 Ry     beta= 0.50
     Davidson diagonalization with overlap
     ethr =  2.15E-05,  avg # of iterations =  2.0

     negative rho (up, down):  1.208E-08 0.000E+00

     total cpu time spent up to now is        7.3 secs

     total energy              =     -31.22331132 Ry
     estimated scf accuracy    <       0.00183848 Ry

     iteration #  6     ecut=    85.00 Ry     beta= 0.50
     Davidson diagonalization with overlap
     ethr =  1.31E-05,  avg # of iterations =  2.0

     total cpu time spent up to now is        8.5 secs

     total energy              =     -31.22367639 Ry
     estimated scf accuracy    <       0.00000601 Ry

     iteration #  7     ecut=    85.00 Ry     beta= 0.50
     Davidson diagonalization with overlap
     ethr =  4.30E-08,  avg # of iterations =  3.0

     total cpu time spent up to now is       10.0 secs

     total energy              =     -31.22368436 Ry
     estimated scf accuracy    <       0.00000103 Ry

     iteration #  8     ecut=    85.00 Ry     beta= 0.50
     Davidson diagonalization with overlap
     ethr =  7.37E-09,  avg # of iterations =  2.0

     total cpu time spent up to now is       11.2 secs

     total energy              =     -31.22368456 Ry
     estimated scf accuracy    <       0.00000022 Ry

     iteration #  9     ecut=    85.00 Ry     beta= 0.50
     Davidson diagonalization with overlap
     ethr =  1.57E-09,  avg # of iterations =  3.0

     total cpu time spent up to now is       12.5 secs

     total energy              =     -31.22368452 Ry
     estimated scf accuracy    <       0.00000051 Ry

     iteration # 10     ecut=    85.00 Ry     beta= 0.50
     Davidson diagonalization with overlap
     ethr =  1.57E-09,  avg # of iterations =  2.0

     total cpu time spent up to now is       13.8 secs

     total energy              =     -31.22368450 Ry
     estimated scf accuracy    <       0.00000011 Ry

     iteration # 11     ecut=    85.00 Ry     beta= 0.50
     Davidson diagonalization with overlap
     ethr =  7.83E-10,  avg # of iterations =  2.0

     total cpu time spent up to now is       15.1 secs

     total energy              =     -31.22368452 Ry
     estimated scf accuracy    <          1.0E-10 Ry

     iteration # 12     ecut=    85.00 Ry     beta= 0.50
     Davidson diagonalization with overlap
     ethr =  7.26E-13,  avg # of iterations =  4.0

     total cpu time spent up to now is       16.5 secs

     total energy              =     -31.22368452 Ry
     estimated scf accuracy    <          8.0E-10 Ry

     iteration # 13     ecut=    85.00 Ry     beta= 0.50
     Davidson diagonalization with overlap
     ethr =  7.26E-13,  avg # of iterations =  2.0

     total cpu time spent up to now is       17.8 secs

     total energy              =     -31.22368452 Ry
     estimated scf accuracy    <          2.4E-10 Ry

     iteration # 14     ecut=    85.00 Ry     beta= 0.50
     Davidson diagonalization with overlap
     ethr =  7.26E-13,  avg # of iterations =  3.0

     total cpu time spent up to now is       19.2 secs

     total energy              =     -31.22368452 Ry
     estimated scf accuracy    <          4.3E-11 Ry

     iteration # 15     ecut=    85.00 Ry     beta= 0.50
     Davidson diagonalization with overlap
     ethr =  3.04E-13,  avg # of iterations =  1.0

     total cpu time spent up to now is       20.3 secs

     total energy              =     -31.22368452 Ry
     estimated scf accuracy    <          3.3E-11 Ry

     iteration # 16     ecut=    85.00 Ry     beta= 0.50
     Davidson diagonalization with overlap
     ethr =  2.36E-13,  avg # of iterations =  2.0

     total cpu time spent up to now is       21.5 secs

     total energy              =     -31.22368452 Ry
     estimated scf accuracy    <          3.8E-12 Ry

     iteration # 17     ecut=    85.00 Ry     beta= 0.50
     Davidson diagonalization with overlap
     ethr =  1.00E-13,  avg # of iterations =  1.0

     total cpu time spent up to now is       22.4 secs

     End of self-consistent calculation

          k = 0.0000 0.0000 0.0000 ( 53024 PWs)   bands (ev):

   -18.2821 -14.8081 -10.2775 -10.2767  -8.6045  -7.9213  -7.9204

     highest occupied level (ev):    -7.9204

!    total energy              =     -31.22368452 Ry
     estimated scf accuracy    <          1.8E-13 Ry

     The total energy is the sum of the following terms:
     one-electron contribution =     -91.53278062 Ry
     hartree contribution      =      47.48632637 Ry
     xc contribution           =     -12.88036592 Ry
     ewald contribution        =      25.70313565 Ry

     convergence has been achieved in  17 iterations

     Forces acting on atoms (cartesian axes, Ry/au):

     atom    1 type  1   force =    -0.00002723   -0.01098661   -0.00001669
     atom    2 type  1   force =     0.00002630    0.01098680    0.00001194
     atom    3 type  2   force =    -0.00043298    0.00215457   -0.00344667
     atom    4 type  2   force =    -0.00273491    0.00215602    0.00213931
     atom    5 type  2   force =     0.00319505    0.00216655    0.00132242
     atom    6 type  2   force =     0.00273702   -0.00215559   -0.00213914
     atom    7 type  2   force =     0.00043528   -0.00215584    0.00344503
     atom    8 type  2   force =    -0.00319852   -0.00216590   -0.00131622

     Total force =     0.018481     Total SCF correction =     0.000001

     Writing output data file ./Ethane.save/

     init_run     :      1.27s CPU      1.36s WALL (       1 calls)
     electrons    :     20.49s CPU     21.03s WALL (       1 calls)
     forces       :      0.83s CPU      0.85s WALL (       1 calls)

     Called by init_run:
     wfcinit      :      0.33s CPU      0.34s WALL (       1 calls)
     potinit      :      0.55s CPU      0.61s WALL (       1 calls)
     hinit0       :      0.21s CPU      0.23s WALL (       1 calls)

     Called by electrons:
     c_bands      :      9.20s CPU      9.27s WALL (      17 calls)
     sum_band     :      2.92s CPU      2.94s WALL (      17 calls)
     v_of_rho     :      6.49s CPU      6.93s WALL (      18 calls)
     mix_rho      :      2.03s CPU      2.08s WALL (      17 calls)

     Called by c_bands:
     init_us_2    :      0.19s CPU      0.20s WALL (      35 calls)
     regterg      :      8.99s CPU      9.05s WALL (      17 calls)

     Called by *egterg:
     rdiaghg      :      0.02s CPU      0.02s WALL (      53 calls)
     h_psi        :      8.42s CPU      8.48s WALL (      54 calls)
     g_psi        :      0.02s CPU      0.02s WALL (      36 calls)

     Called by h_psi:
     h_psi:calbec :      0.63s CPU      0.64s WALL (      54 calls)
     vloc_psi     :      7.21s CPU      7.26s WALL (      54 calls)
     add_vuspsi   :      0.52s CPU      0.53s WALL (      54 calls)

     General routines
     calbec       :      0.68s CPU      0.69s WALL (      58 calls)
     fft          :      4.75s CPU      4.87s WALL (     152 calls)
     ffts         :      0.51s CPU      0.51s WALL (      17 calls)
     fftw         :      6.78s CPU      6.83s WALL (     474 calls)

     Parallel routines

     PWSCF        :     22.69s CPU     23.36s WALL


   This run was terminated on:   6:34:56  24May2021            

=------------------------------------------------------------------------------=
   JOB DONE.
=------------------------------------------------------------------------------=
