
     Program PWSCF v.6.7GPU starts on 24May2021 at  6:33:10 

     This program is part of the open-source Quantum ESPRESSO suite
     for quantum simulation of materials; please cite
         "P. Giannozzi et al., J. Phys.:Condens. Matter 21 395502 (2009);
         "P. Giannozzi et al., J. Phys.:Condens. Matter 29 465901 (2017);
         "P. Giannozzi et al., J. Chem. Phys. 152 154105 (2020);
          URL http://www.quantum-espresso.org", 
     in publications or presentations arising from this work. More details at
     http://www.quantum-espresso.org/quote

     Parallel version (MPI), running on     4 processors

     MPI processes distributed on     1 nodes
     R & G space division:  proc/nbgrp/npool/nimage =       4
     Waiting for input...
     Reading input from standard input
     Message from routine read_cards :
     DEPRECATED: no units specified in CELL_PARAMETERS card

     Current dimensions of program PWSCF are:
     Max number of different atomic species (ntypx) = 10
     Max number of k-points (npk) =  40000
     Max angular momentum in pseudopotentials (lmaxx) =  3

     gamma-point specific algorithms are used

     Subspace diagonalization in iterative solution of the eigenvalue problem:
     one sub-group per band group will be used
     scalapack distributed-memory algorithm (size of sub-group:  2*  2 procs)


     Parallelization info
     --------------------
     sticks:   dense  smooth     PW     G-vecs:    dense   smooth      PW
     Min        2069    2069    518               141623   141623   17686
     Max        2072    2072    520               141628   141628   17689
     Sum        8285    8285   2077               566507   566507   70751

     Using Slab Decomposition



     bravais-lattice index     =            0
     lattice parameter (alat)  =      20.0000  a.u.
     unit-cell volume          =    8000.0000 (a.u.)^3
     number of atoms/cell      =            8
     number of atomic types    =            2
     number of electrons       =        14.00
     number of Kohn-Sham states=            7
     kinetic-energy cutoff     =      65.0000  Ry
     charge density cutoff     =     260.0000  Ry
     scf convergence threshold =      1.0E-12
     mixing beta               =       0.5000
     number of iterations used =            8  plain     mixing
     Exchange-correlation= PBE
                           (   1   4   3   4   0   0   0)

     celldm(1)=  20.000000  celldm(2)=   0.000000  celldm(3)=   0.000000
     celldm(4)=   0.000000  celldm(5)=   0.000000  celldm(6)=   0.000000

     crystal axes: (cart. coord. in units of alat)
               a(1) = (   1.000000   0.000000   0.000000 )  
               a(2) = (   0.000000   1.000000   0.000000 )  
               a(3) = (   0.000000   0.000000   1.000000 )  

     reciprocal axes: (cart. coord. in units 2 pi/alat)
               b(1) = (  1.000000  0.000000  0.000000 )  
               b(2) = (  0.000000  1.000000  0.000000 )  
               b(3) = (  0.000000  0.000000  1.000000 )  


     PseudoPot. # 1 for C  read from file:
     /home/ciga/builds/pseudo_potentials/C.upf
     MD5 check sum: d80ec9912146af6c4c1760317d1f95e9
     Pseudo is Norm-conserving + core correction, Zval =  4.0
     Generated using ONCVPSP code by D. R. Hamann
     Using radial grid of 1248 points,  4 beta functions with: 
                l(1) =   0
                l(2) =   0
                l(3) =   1
                l(4) =   1

     PseudoPot. # 2 for H  read from file:
     /home/ciga/builds/pseudo_potentials/H.upf
     MD5 check sum: 418cee52d0c413ae40802e6cc37ab9e3
     Pseudo is Norm-conserving, Zval =  1.0
     Generated using ONCVPSP code by D. R. Hamann
     Using radial grid of 1166 points,  3 beta functions with: 
                l(1) =   0
                l(2) =   0
                l(3) =   1

     atomic species   valence    mass     pseudopotential
        C              4.00    12.01070     C ( 1.00)
        H              1.00     1.00794     H ( 1.00)

     No symmetry found



   Cartesian axes

     site n.     atom                  positions (alat units)
         1           C   tau(   1) = (   0.0000094   0.0723482   0.0000000  )
         2           C   tau(   2) = (  -0.0000094  -0.0726883   0.0000000  )
         3           H   tau(   3) = (  -0.0127454   0.1096798  -0.0955438  )
         4           H   tau(   4) = (  -0.0763618   0.1096881   0.0588057  )
         5           H   tau(   5) = (   0.0891345   0.1096665   0.0367290  )
         6           H   tau(   6) = (   0.0763778  -0.1100283  -0.0587847  )
         7           H   tau(   7) = (   0.0127177  -0.1100199   0.0955475  )
         8           H   tau(   8) = (  -0.0891232  -0.1100066  -0.0367565  )

     number of k points=     1
                       cart. coord. in units 2pi/alat
        k(    1) = (   0.0000000   0.0000000   0.0000000), wk =   2.0000000

     Dense  grid:   283254 G-vectors     FFT dimensions: ( 108, 108, 108)

     Estimated max dynamical RAM per process >      64.91 MB

     Estimated total dynamical RAM >     259.64 MB

     Initial potential from superposition of free atoms

     starting charge   13.99986, renormalised to   14.00000

     negative rho (up, down):  2.266E-04 0.000E+00
     Starting wfcs are   14 randomized atomic wfcs

     total cpu time spent up to now is        1.1 secs

     Self-consistent Calculation

     iteration #  1     ecut=    65.00 Ry     beta= 0.50
     Davidson diagonalization with overlap
     ethr =  1.00E-02,  avg # of iterations =  2.0

     negative rho (up, down):  9.471E-05 0.000E+00

     total cpu time spent up to now is        2.0 secs

     total energy              =     -31.04093951 Ry
     estimated scf accuracy    <       1.01093003 Ry

     iteration #  2     ecut=    65.00 Ry     beta= 0.50
     Davidson diagonalization with overlap
     ethr =  7.22E-03,  avg # of iterations =  2.0

     negative rho (up, down):  4.175E-05 0.000E+00

     total cpu time spent up to now is        3.0 secs

     total energy              =     -31.22332893 Ry
     estimated scf accuracy    <       0.07032824 Ry

     iteration #  3     ecut=    65.00 Ry     beta= 0.50
     Davidson diagonalization with overlap
     ethr =  5.02E-04,  avg # of iterations =  1.0

     negative rho (up, down):  2.518E-06 0.000E+00

     total cpu time spent up to now is        3.8 secs

     total energy              =     -31.21739594 Ry
     estimated scf accuracy    <       0.01720394 Ry

     iteration #  4     ecut=    65.00 Ry     beta= 0.50
     Davidson diagonalization with overlap
     ethr =  1.23E-04,  avg # of iterations =  2.0

     negative rho (up, down):  2.044E-06 0.000E+00

     total cpu time spent up to now is        4.7 secs

     total energy              =     -31.21896805 Ry
     estimated scf accuracy    <       0.00298625 Ry

     iteration #  5     ecut=    65.00 Ry     beta= 0.50
     Davidson diagonalization with overlap
     ethr =  2.13E-05,  avg # of iterations =  2.0

     negative rho (up, down):  3.661E-07 0.000E+00

     total cpu time spent up to now is        5.7 secs

     total energy              =     -31.21968797 Ry
     estimated scf accuracy    <       0.00184140 Ry

     iteration #  6     ecut=    65.00 Ry     beta= 0.50
     Davidson diagonalization with overlap
     ethr =  1.32E-05,  avg # of iterations =  2.0

     negative rho (up, down):  1.909E-08 0.000E+00

     total cpu time spent up to now is        6.6 secs

     total energy              =     -31.22005484 Ry
     estimated scf accuracy    <       0.00000647 Ry

     iteration #  7     ecut=    65.00 Ry     beta= 0.50
     Davidson diagonalization with overlap
     ethr =  4.62E-08,  avg # of iterations =  3.0

     total cpu time spent up to now is        7.7 secs

     total energy              =     -31.22006277 Ry
     estimated scf accuracy    <       0.00000106 Ry

     iteration #  8     ecut=    65.00 Ry     beta= 0.50
     Davidson diagonalization with overlap
     ethr =  7.59E-09,  avg # of iterations =  2.0

     total cpu time spent up to now is        8.7 secs

     total energy              =     -31.22006298 Ry
     estimated scf accuracy    <       0.00000021 Ry

     iteration #  9     ecut=    65.00 Ry     beta= 0.50
     Davidson diagonalization with overlap
     ethr =  1.53E-09,  avg # of iterations =  3.0

     total cpu time spent up to now is        9.7 secs

     total energy              =     -31.22006293 Ry
     estimated scf accuracy    <       0.00000051 Ry

     iteration # 10     ecut=    65.00 Ry     beta= 0.50
     Davidson diagonalization with overlap
     ethr =  1.53E-09,  avg # of iterations =  2.0

     total cpu time spent up to now is       10.7 secs

     total energy              =     -31.22006292 Ry
     estimated scf accuracy    <       0.00000010 Ry

     iteration # 11     ecut=    65.00 Ry     beta= 0.50
     Davidson diagonalization with overlap
     ethr =  6.81E-10,  avg # of iterations =  2.0

     total cpu time spent up to now is       11.6 secs

     total energy              =     -31.22006294 Ry
     estimated scf accuracy    <          6.2E-10 Ry

     iteration # 12     ecut=    65.00 Ry     beta= 0.50
     Davidson diagonalization with overlap
     ethr =  4.42E-12,  avg # of iterations =  3.0

     total cpu time spent up to now is       12.7 secs

     total energy              =     -31.22006294 Ry
     estimated scf accuracy    <          8.2E-10 Ry

     iteration # 13     ecut=    65.00 Ry     beta= 0.50
     Davidson diagonalization with overlap
     ethr =  4.42E-12,  avg # of iterations =  2.0

     total cpu time spent up to now is       13.6 secs

     total energy              =     -31.22006294 Ry
     estimated scf accuracy    <          3.4E-10 Ry

     iteration # 14     ecut=    65.00 Ry     beta= 0.50
     Davidson diagonalization with overlap
     ethr =  2.43E-12,  avg # of iterations =  2.0

     total cpu time spent up to now is       14.5 secs

     total energy              =     -31.22006294 Ry
     estimated scf accuracy    <          9.5E-12 Ry

     iteration # 15     ecut=    65.00 Ry     beta= 0.50
     Davidson diagonalization with overlap
     ethr =  1.00E-13,  avg # of iterations =  4.0

     total cpu time spent up to now is       15.6 secs

     total energy              =     -31.22006294 Ry
     estimated scf accuracy    <          1.5E-11 Ry

     iteration # 16     ecut=    65.00 Ry     beta= 0.50
     Davidson diagonalization with overlap
     ethr =  1.00E-13,  avg # of iterations =  1.0

     total cpu time spent up to now is       16.4 secs

     total energy              =     -31.22006294 Ry
     estimated scf accuracy    <          1.1E-11 Ry

     iteration # 17     ecut=    65.00 Ry     beta= 0.50
     Davidson diagonalization with overlap
     ethr =  1.00E-13,  avg # of iterations =  2.0

     total cpu time spent up to now is       17.3 secs

     total energy              =     -31.22006294 Ry
     estimated scf accuracy    <          1.0E-12 Ry

     iteration # 18     ecut=    65.00 Ry     beta= 0.50
     Davidson diagonalization with overlap
     ethr =  1.00E-13,  avg # of iterations =  1.0

     total cpu time spent up to now is       18.0 secs

     End of self-consistent calculation

          k = 0.0000 0.0000 0.0000 ( 35376 PWs)   bands (ev):

   -18.2862 -14.8111 -10.2779 -10.2771  -8.6046  -7.9213  -7.9204

     highest occupied level (ev):    -7.9204

!    total energy              =     -31.22006294 Ry
     estimated scf accuracy    <          1.2E-13 Ry

     The total energy is the sum of the following terms:
     one-electron contribution =     -91.52658419 Ry
     hartree contribution      =      47.48213464 Ry
     xc contribution           =     -12.87874904 Ry
     ewald contribution        =      25.70313565 Ry

     convergence has been achieved in  18 iterations

     Forces acting on atoms (cartesian axes, Ry/au):

     atom    1 type  1   force =    -0.00001493   -0.01103012   -0.00000229
     atom    2 type  1   force =     0.00001376    0.01103042   -0.00000244
     atom    3 type  2   force =    -0.00049106    0.00231779   -0.00383791
     atom    4 type  2   force =    -0.00305015    0.00231677    0.00237135
     atom    5 type  2   force =     0.00355318    0.00232354    0.00146974
     atom    6 type  2   force =     0.00305238   -0.00231636   -0.00237108
     atom    7 type  2   force =     0.00049334   -0.00231911    0.00383629
     atom    8 type  2   force =    -0.00355653   -0.00232293   -0.00146366

     Total force =     0.019105     Total SCF correction =     0.000000

     Writing output data file ./Ethane.save/

     init_run     :      0.94s CPU      1.01s WALL (       1 calls)
     electrons    :     16.55s CPU     16.97s WALL (       1 calls)
     forces       :      0.61s CPU      0.64s WALL (       1 calls)

     Called by init_run:
     wfcinit      :      0.27s CPU      0.27s WALL (       1 calls)
     potinit      :      0.41s CPU      0.46s WALL (       1 calls)
     hinit0       :      0.17s CPU      0.18s WALL (       1 calls)

     Called by electrons:
     c_bands      :      7.48s CPU      7.53s WALL (      18 calls)
     sum_band     :      2.40s CPU      2.42s WALL (      18 calls)
     v_of_rho     :      5.23s CPU      5.58s WALL (      19 calls)
     mix_rho      :      1.51s CPU      1.53s WALL (      18 calls)

     Called by c_bands:
     init_us_2    :      0.13s CPU      0.14s WALL (      37 calls)
     regterg      :      7.32s CPU      7.37s WALL (      18 calls)

     Called by *egterg:
     rdiaghg      :      0.03s CPU      0.03s WALL (      56 calls)
     h_psi        :      7.04s CPU      7.08s WALL (      57 calls)
     g_psi        :      0.01s CPU      0.01s WALL (      38 calls)

     Called by h_psi:
     h_psi:calbec :      0.45s CPU      0.45s WALL (      57 calls)
     vloc_psi     :      6.20s CPU      6.25s WALL (      57 calls)
     add_vuspsi   :      0.35s CPU      0.35s WALL (      57 calls)

     General routines
     calbec       :      0.48s CPU      0.49s WALL (      61 calls)
     fft          :      3.80s CPU      3.90s WALL (     160 calls)
     ffts         :      0.44s CPU      0.45s WALL (      18 calls)
     fftw         :      6.07s CPU      6.11s WALL (     484 calls)

     Parallel routines

     PWSCF        :     18.19s CPU     18.72s WALL


   This run was terminated on:   6:33:28  24May2021            

=------------------------------------------------------------------------------=
   JOB DONE.
=------------------------------------------------------------------------------=
