
     Program PWSCF v.6.7GPU starts on 24May2021 at  6:32:20 

     This program is part of the open-source Quantum ESPRESSO suite
     for quantum simulation of materials; please cite
         "P. Giannozzi et al., J. Phys.:Condens. Matter 21 395502 (2009);
         "P. Giannozzi et al., J. Phys.:Condens. Matter 29 465901 (2017);
         "P. Giannozzi et al., J. Chem. Phys. 152 154105 (2020);
          URL http://www.quantum-espresso.org", 
     in publications or presentations arising from this work. More details at
     http://www.quantum-espresso.org/quote

     Parallel version (MPI), running on     4 processors

     MPI processes distributed on     1 nodes
     R & G space division:  proc/nbgrp/npool/nimage =       4
     Waiting for input...
     Reading input from standard input
     Message from routine read_cards :
     DEPRECATED: no units specified in CELL_PARAMETERS card

     Current dimensions of program PWSCF are:
     Max number of different atomic species (ntypx) = 10
     Max number of k-points (npk) =  40000
     Max angular momentum in pseudopotentials (lmaxx) =  3

     gamma-point specific algorithms are used

     Subspace diagonalization in iterative solution of the eigenvalue problem:
     one sub-group per band group will be used
     scalapack distributed-memory algorithm (size of sub-group:  2*  2 procs)


     Parallelization info
     --------------------
     sticks:   dense  smooth     PW     G-vecs:    dense   smooth      PW
     Min        1271    1271    317                68355    68355    8565
     Max        1276    1276    322                68358    68358    8568
     Sum        5097    5097   1281               273425   273425   34265

     Using Slab Decomposition



     bravais-lattice index     =            0
     lattice parameter (alat)  =      20.0000  a.u.
     unit-cell volume          =    8000.0000 (a.u.)^3
     number of atoms/cell      =            8
     number of atomic types    =            2
     number of electrons       =        14.00
     number of Kohn-Sham states=            7
     kinetic-energy cutoff     =      40.0000  Ry
     charge density cutoff     =     160.0000  Ry
     scf convergence threshold =      1.0E-12
     mixing beta               =       0.5000
     number of iterations used =            8  plain     mixing
     Exchange-correlation= PBE
                           (   1   4   3   4   0   0   0)

     celldm(1)=  20.000000  celldm(2)=   0.000000  celldm(3)=   0.000000
     celldm(4)=   0.000000  celldm(5)=   0.000000  celldm(6)=   0.000000

     crystal axes: (cart. coord. in units of alat)
               a(1) = (   1.000000   0.000000   0.000000 )  
               a(2) = (   0.000000   1.000000   0.000000 )  
               a(3) = (   0.000000   0.000000   1.000000 )  

     reciprocal axes: (cart. coord. in units 2 pi/alat)
               b(1) = (  1.000000  0.000000  0.000000 )  
               b(2) = (  0.000000  1.000000  0.000000 )  
               b(3) = (  0.000000  0.000000  1.000000 )  


     PseudoPot. # 1 for C  read from file:
     /home/ciga/builds/pseudo_potentials/C.upf
     MD5 check sum: d80ec9912146af6c4c1760317d1f95e9
     Pseudo is Norm-conserving + core correction, Zval =  4.0
     Generated using ONCVPSP code by D. R. Hamann
     Using radial grid of 1248 points,  4 beta functions with: 
                l(1) =   0
                l(2) =   0
                l(3) =   1
                l(4) =   1

     PseudoPot. # 2 for H  read from file:
     /home/ciga/builds/pseudo_potentials/H.upf
     MD5 check sum: 418cee52d0c413ae40802e6cc37ab9e3
     Pseudo is Norm-conserving, Zval =  1.0
     Generated using ONCVPSP code by D. R. Hamann
     Using radial grid of 1166 points,  3 beta functions with: 
                l(1) =   0
                l(2) =   0
                l(3) =   1

     atomic species   valence    mass     pseudopotential
        C              4.00    12.01070     C ( 1.00)
        H              1.00     1.00794     H ( 1.00)

     No symmetry found



   Cartesian axes

     site n.     atom                  positions (alat units)
         1           C   tau(   1) = (   0.0000094   0.0723482   0.0000000  )
         2           C   tau(   2) = (  -0.0000094  -0.0726883   0.0000000  )
         3           H   tau(   3) = (  -0.0127454   0.1096798  -0.0955438  )
         4           H   tau(   4) = (  -0.0763618   0.1096881   0.0588057  )
         5           H   tau(   5) = (   0.0891345   0.1096665   0.0367290  )
         6           H   tau(   6) = (   0.0763778  -0.1100283  -0.0587847  )
         7           H   tau(   7) = (   0.0127177  -0.1100199   0.0955475  )
         8           H   tau(   8) = (  -0.0891232  -0.1100066  -0.0367565  )

     number of k points=     1
                       cart. coord. in units 2pi/alat
        k(    1) = (   0.0000000   0.0000000   0.0000000), wk =   2.0000000

     Dense  grid:   136713 G-vectors     FFT dimensions: (  81,  81,  81)

     Estimated max dynamical RAM per process >      30.58 MB

     Estimated total dynamical RAM >     122.32 MB

     Initial potential from superposition of free atoms

     starting charge   13.99986, renormalised to   14.00000

     negative rho (up, down):  1.427E-03 0.000E+00
     Starting wfcs are   14 randomized atomic wfcs

     total cpu time spent up to now is        0.5 secs

     Self-consistent Calculation

     iteration #  1     ecut=    40.00 Ry     beta= 0.50
     Davidson diagonalization with overlap
     ethr =  1.00E-02,  avg # of iterations =  2.0

     negative rho (up, down):  6.670E-04 0.000E+00

     total cpu time spent up to now is        0.9 secs

     total energy              =     -30.96639775 Ry
     estimated scf accuracy    <       0.94541825 Ry

     iteration #  2     ecut=    40.00 Ry     beta= 0.50
     Davidson diagonalization with overlap
     ethr =  6.75E-03,  avg # of iterations =  2.0

     negative rho (up, down):  3.112E-04 0.000E+00

     total cpu time spent up to now is        1.2 secs

     total energy              =     -31.12850161 Ry
     estimated scf accuracy    <       0.06787000 Ry

     iteration #  3     ecut=    40.00 Ry     beta= 0.50
     Davidson diagonalization with overlap
     ethr =  4.85E-04,  avg # of iterations =  1.0

     negative rho (up, down):  1.177E-05 0.000E+00

     total cpu time spent up to now is        1.6 secs

     total energy              =     -31.12288546 Ry
     estimated scf accuracy    <       0.01604962 Ry

     iteration #  4     ecut=    40.00 Ry     beta= 0.50
     Davidson diagonalization with overlap
     ethr =  1.15E-04,  avg # of iterations =  2.0

     negative rho (up, down):  1.132E-05 0.000E+00

     total cpu time spent up to now is        1.9 secs

     total energy              =     -31.12439758 Ry
     estimated scf accuracy    <       0.00247225 Ry

     iteration #  5     ecut=    40.00 Ry     beta= 0.50
     Davidson diagonalization with overlap
     ethr =  1.77E-05,  avg # of iterations =  2.0

     negative rho (up, down):  8.562E-07 0.000E+00

     total cpu time spent up to now is        2.3 secs

     total energy              =     -31.12498436 Ry
     estimated scf accuracy    <       0.00153154 Ry

     iteration #  6     ecut=    40.00 Ry     beta= 0.50
     Davidson diagonalization with overlap
     ethr =  1.09E-05,  avg # of iterations =  2.0

     negative rho (up, down):  1.084E-08 0.000E+00

     total cpu time spent up to now is        2.6 secs

     total energy              =     -31.12528817 Ry
     estimated scf accuracy    <       0.00000567 Ry

     iteration #  7     ecut=    40.00 Ry     beta= 0.50
     Davidson diagonalization with overlap
     ethr =  4.05E-08,  avg # of iterations =  3.0

     total cpu time spent up to now is        3.0 secs

     total energy              =     -31.12529397 Ry
     estimated scf accuracy    <       0.00000114 Ry

     iteration #  8     ecut=    40.00 Ry     beta= 0.50
     Davidson diagonalization with overlap
     ethr =  8.16E-09,  avg # of iterations =  2.0

     total cpu time spent up to now is        3.4 secs

     total energy              =     -31.12529427 Ry
     estimated scf accuracy    <       0.00000017 Ry

     iteration #  9     ecut=    40.00 Ry     beta= 0.50
     Davidson diagonalization with overlap
     ethr =  1.22E-09,  avg # of iterations =  3.0

     total cpu time spent up to now is        3.8 secs

     total energy              =     -31.12529418 Ry
     estimated scf accuracy    <       0.00000044 Ry

     iteration # 10     ecut=    40.00 Ry     beta= 0.50
     Davidson diagonalization with overlap
     ethr =  1.22E-09,  avg # of iterations =  2.0

     total cpu time spent up to now is        4.2 secs

     total energy              =     -31.12529419 Ry
     estimated scf accuracy    <       0.00000006 Ry

     iteration # 11     ecut=    40.00 Ry     beta= 0.50
     Davidson diagonalization with overlap
     ethr =  4.03E-10,  avg # of iterations =  2.0

     total cpu time spent up to now is        4.5 secs

     total energy              =     -31.12529420 Ry
     estimated scf accuracy    <          1.4E-10 Ry

     iteration # 12     ecut=    40.00 Ry     beta= 0.50
     Davidson diagonalization with overlap
     ethr =  1.01E-12,  avg # of iterations =  4.0

     total cpu time spent up to now is        5.0 secs

     total energy              =     -31.12529420 Ry
     estimated scf accuracy    <          5.5E-11 Ry

     iteration # 13     ecut=    40.00 Ry     beta= 0.50
     Davidson diagonalization with overlap
     ethr =  3.92E-13,  avg # of iterations =  3.0

     total cpu time spent up to now is        5.4 secs

     total energy              =     -31.12529420 Ry
     estimated scf accuracy    <          2.6E-10 Ry

     iteration # 14     ecut=    40.00 Ry     beta= 0.50
     Davidson diagonalization with overlap
     ethr =  3.92E-13,  avg # of iterations =  2.0

     total cpu time spent up to now is        5.8 secs

     total energy              =     -31.12529420 Ry
     estimated scf accuracy    <          1.1E-10 Ry

     iteration # 15     ecut=    40.00 Ry     beta= 0.50
     Davidson diagonalization with overlap
     ethr =  3.92E-13,  avg # of iterations =  2.0

     total cpu time spent up to now is        6.1 secs

     End of self-consistent calculation

          k = 0.0000 0.0000 0.0000 ( 17133 PWs)   bands (ev):

   -18.3677 -14.8626 -10.2771 -10.2765  -8.6034  -7.9084  -7.9073

     highest occupied level (ev):    -7.9073

!    total energy              =     -31.12529420 Ry
     estimated scf accuracy    <          1.2E-13 Ry

     The total energy is the sum of the following terms:
     one-electron contribution =     -91.36245746 Ry
     hartree contribution      =      47.37934190 Ry
     xc contribution           =     -12.84531421 Ry
     ewald contribution        =      25.70313556 Ry

     convergence has been achieved in  15 iterations

     Forces acting on atoms (cartesian axes, Ry/au):

     atom    1 type  1   force =    -0.00005143    0.00374008    0.00004577
     atom    2 type  1   force =     0.00005014   -0.00373994   -0.00005042
     atom    3 type  2   force =    -0.00041699    0.00239923   -0.00367747
     atom    4 type  2   force =    -0.00284673    0.00238031    0.00226450
     atom    5 type  2   force =     0.00330827    0.00238071    0.00135344
     atom    6 type  2   force =     0.00284883   -0.00237986   -0.00226438
     atom    7 type  2   force =     0.00041953   -0.00240050    0.00367594
     atom    8 type  2   force =    -0.00331162   -0.00238003   -0.00134738

     Total force =     0.011899     Total SCF correction =     0.000000

     Writing output data file ./Ethane.save/

     init_run     :      0.42s CPU      0.45s WALL (       1 calls)
     electrons    :      5.42s CPU      5.61s WALL (       1 calls)
     forces       :      0.28s CPU      0.29s WALL (       1 calls)

     Called by init_run:
     wfcinit      :      0.10s CPU      0.10s WALL (       1 calls)
     potinit      :      0.20s CPU      0.22s WALL (       1 calls)
     hinit0       :      0.08s CPU      0.09s WALL (       1 calls)

     Called by electrons:
     c_bands      :      2.48s CPU      2.51s WALL (      15 calls)
     sum_band     :      0.76s CPU      0.77s WALL (      15 calls)
     v_of_rho     :      1.79s CPU      1.95s WALL (      16 calls)
     mix_rho      :      0.44s CPU      0.45s WALL (      15 calls)

     Called by c_bands:
     init_us_2    :      0.05s CPU      0.06s WALL (      31 calls)
     regterg      :      2.41s CPU      2.44s WALL (      15 calls)

     Called by *egterg:
     rdiaghg      :      0.02s CPU      0.02s WALL (      49 calls)
     h_psi        :      2.28s CPU      2.31s WALL (      50 calls)
     g_psi        :      0.01s CPU      0.01s WALL (      34 calls)

     Called by h_psi:
     h_psi:calbec :      0.21s CPU      0.21s WALL (      50 calls)
     vloc_psi     :      1.92s CPU      1.94s WALL (      50 calls)
     add_vuspsi   :      0.16s CPU      0.16s WALL (      50 calls)

     General routines
     calbec       :      0.22s CPU      0.22s WALL (      54 calls)
     fft          :      1.27s CPU      1.31s WALL (     136 calls)
     ffts         :      0.14s CPU      0.14s WALL (      15 calls)
     fftw         :      1.78s CPU      1.81s WALL (     436 calls)

     Parallel routines

     PWSCF        :      6.19s CPU      6.43s WALL


   This run was terminated on:   6:32:27  24May2021            

=------------------------------------------------------------------------------=
   JOB DONE.
=------------------------------------------------------------------------------=
