
     Program PWSCF v.6.7GPU starts on 24May2021 at  6:32:11 

     This program is part of the open-source Quantum ESPRESSO suite
     for quantum simulation of materials; please cite
         "P. Giannozzi et al., J. Phys.:Condens. Matter 21 395502 (2009);
         "P. Giannozzi et al., J. Phys.:Condens. Matter 29 465901 (2017);
         "P. Giannozzi et al., J. Chem. Phys. 152 154105 (2020);
          URL http://www.quantum-espresso.org", 
     in publications or presentations arising from this work. More details at
     http://www.quantum-espresso.org/quote

     Parallel version (MPI), running on     4 processors

     MPI processes distributed on     1 nodes
     R & G space division:  proc/nbgrp/npool/nimage =       4
     Waiting for input...
     Reading input from standard input
     Message from routine read_cards :
     DEPRECATED: no units specified in CELL_PARAMETERS card

     Current dimensions of program PWSCF are:
     Max number of different atomic species (ntypx) = 10
     Max number of k-points (npk) =  40000
     Max angular momentum in pseudopotentials (lmaxx) =  3

     gamma-point specific algorithms are used

     Subspace diagonalization in iterative solution of the eigenvalue problem:
     one sub-group per band group will be used
     scalapack distributed-memory algorithm (size of sub-group:  2*  2 procs)


     Parallelization info
     --------------------
     sticks:   dense  smooth     PW     G-vecs:    dense   smooth      PW
     Min         951     951    236                44375    44375    5524
     Max         954     954    238                44382    44382    5534
     Sum        3809    3809    949               177509   177509   22119

     Using Slab Decomposition



     bravais-lattice index     =            0
     lattice parameter (alat)  =      20.0000  a.u.
     unit-cell volume          =    8000.0000 (a.u.)^3
     number of atoms/cell      =            8
     number of atomic types    =            2
     number of electrons       =        14.00
     number of Kohn-Sham states=            7
     kinetic-energy cutoff     =      30.0000  Ry
     charge density cutoff     =     120.0000  Ry
     scf convergence threshold =      1.0E-12
     mixing beta               =       0.5000
     number of iterations used =            8  plain     mixing
     Exchange-correlation= PBE
                           (   1   4   3   4   0   0   0)

     celldm(1)=  20.000000  celldm(2)=   0.000000  celldm(3)=   0.000000
     celldm(4)=   0.000000  celldm(5)=   0.000000  celldm(6)=   0.000000

     crystal axes: (cart. coord. in units of alat)
               a(1) = (   1.000000   0.000000   0.000000 )  
               a(2) = (   0.000000   1.000000   0.000000 )  
               a(3) = (   0.000000   0.000000   1.000000 )  

     reciprocal axes: (cart. coord. in units 2 pi/alat)
               b(1) = (  1.000000  0.000000  0.000000 )  
               b(2) = (  0.000000  1.000000  0.000000 )  
               b(3) = (  0.000000  0.000000  1.000000 )  


     PseudoPot. # 1 for C  read from file:
     /home/ciga/builds/pseudo_potentials/C.upf
     MD5 check sum: d80ec9912146af6c4c1760317d1f95e9
     Pseudo is Norm-conserving + core correction, Zval =  4.0
     Generated using ONCVPSP code by D. R. Hamann
     Using radial grid of 1248 points,  4 beta functions with: 
                l(1) =   0
                l(2) =   0
                l(3) =   1
                l(4) =   1

     PseudoPot. # 2 for H  read from file:
     /home/ciga/builds/pseudo_potentials/H.upf
     MD5 check sum: 418cee52d0c413ae40802e6cc37ab9e3
     Pseudo is Norm-conserving, Zval =  1.0
     Generated using ONCVPSP code by D. R. Hamann
     Using radial grid of 1166 points,  3 beta functions with: 
                l(1) =   0
                l(2) =   0
                l(3) =   1

     atomic species   valence    mass     pseudopotential
        C              4.00    12.01070     C ( 1.00)
        H              1.00     1.00794     H ( 1.00)

     No symmetry found



   Cartesian axes

     site n.     atom                  positions (alat units)
         1           C   tau(   1) = (   0.0000094   0.0723482   0.0000000  )
         2           C   tau(   2) = (  -0.0000094  -0.0726883   0.0000000  )
         3           H   tau(   3) = (  -0.0127454   0.1096798  -0.0955438  )
         4           H   tau(   4) = (  -0.0763618   0.1096881   0.0588057  )
         5           H   tau(   5) = (   0.0891345   0.1096665   0.0367290  )
         6           H   tau(   6) = (   0.0763778  -0.1100283  -0.0587847  )
         7           H   tau(   7) = (   0.0127177  -0.1100199   0.0955475  )
         8           H   tau(   8) = (  -0.0891232  -0.1100066  -0.0367565  )

     number of k points=     1
                       cart. coord. in units 2pi/alat
        k(    1) = (   0.0000000   0.0000000   0.0000000), wk =   2.0000000

     Dense  grid:    88755 G-vectors     FFT dimensions: (  72,  72,  72)

     Estimated max dynamical RAM per process >      20.25 MB

     Estimated total dynamical RAM >      80.99 MB

     Initial potential from superposition of free atoms

     starting charge   13.99986, renormalised to   14.00000

     negative rho (up, down):  7.028E-03 0.000E+00
     Starting wfcs are   14 randomized atomic wfcs

     total cpu time spent up to now is        0.4 secs

     Self-consistent Calculation

     iteration #  1     ecut=    30.00 Ry     beta= 0.50
     Davidson diagonalization with overlap
     ethr =  1.00E-02,  avg # of iterations =  2.0

     negative rho (up, down):  3.392E-03 0.000E+00

     total cpu time spent up to now is        0.6 secs

     total energy              =     -30.81384434 Ry
     estimated scf accuracy    <       0.82862477 Ry

     iteration #  2     ecut=    30.00 Ry     beta= 0.50
     Davidson diagonalization with overlap
     ethr =  5.92E-03,  avg # of iterations =  2.0

     negative rho (up, down):  1.569E-03 0.000E+00

     total cpu time spent up to now is        0.8 secs

     total energy              =     -30.93966195 Ry
     estimated scf accuracy    <       0.06390788 Ry

     iteration #  3     ecut=    30.00 Ry     beta= 0.50
     Davidson diagonalization with overlap
     ethr =  4.56E-04,  avg # of iterations =  1.0

     negative rho (up, down):  7.160E-05 0.000E+00

     total cpu time spent up to now is        1.0 secs

     total energy              =     -30.93494249 Ry
     estimated scf accuracy    <       0.01390283 Ry

     iteration #  4     ecut=    30.00 Ry     beta= 0.50
     Davidson diagonalization with overlap
     ethr =  9.93E-05,  avg # of iterations =  2.0

     negative rho (up, down):  6.045E-05 0.000E+00

     total cpu time spent up to now is        1.2 secs

     total energy              =     -30.93630814 Ry
     estimated scf accuracy    <       0.00153748 Ry

     iteration #  5     ecut=    30.00 Ry     beta= 0.50
     Davidson diagonalization with overlap
     ethr =  1.10E-05,  avg # of iterations =  2.0

     negative rho (up, down):  5.057E-06 0.000E+00

     total cpu time spent up to now is        1.4 secs

     total energy              =     -30.93665423 Ry
     estimated scf accuracy    <       0.00095060 Ry

     iteration #  6     ecut=    30.00 Ry     beta= 0.50
     Davidson diagonalization with overlap
     ethr =  6.79E-06,  avg # of iterations =  2.0

     negative rho (up, down):  1.345E-08 0.000E+00

     total cpu time spent up to now is        1.6 secs

     total energy              =     -30.93684770 Ry
     estimated scf accuracy    <       0.00000618 Ry

     iteration #  7     ecut=    30.00 Ry     beta= 0.50
     Davidson diagonalization with overlap
     ethr =  4.41E-08,  avg # of iterations =  2.0

     total cpu time spent up to now is        1.8 secs

     total energy              =     -30.93685100 Ry
     estimated scf accuracy    <       0.00000092 Ry

     iteration #  8     ecut=    30.00 Ry     beta= 0.50
     Davidson diagonalization with overlap
     ethr =  6.57E-09,  avg # of iterations =  2.0

     total cpu time spent up to now is        2.0 secs

     total energy              =     -30.93685126 Ry
     estimated scf accuracy    <       0.00000010 Ry

     iteration #  9     ecut=    30.00 Ry     beta= 0.50
     Davidson diagonalization with overlap
     ethr =  7.11E-10,  avg # of iterations =  3.0

     total cpu time spent up to now is        2.3 secs

     total energy              =     -30.93685117 Ry
     estimated scf accuracy    <       0.00000029 Ry

     iteration # 10     ecut=    30.00 Ry     beta= 0.50
     Davidson diagonalization with overlap
     ethr =  7.11E-10,  avg # of iterations =  2.0

     total cpu time spent up to now is        2.5 secs

     total energy              =     -30.93685120 Ry
     estimated scf accuracy    <       0.00000002 Ry

     iteration # 11     ecut=    30.00 Ry     beta= 0.50
     Davidson diagonalization with overlap
     ethr =  1.07E-10,  avg # of iterations =  2.0

     total cpu time spent up to now is        2.7 secs

     total energy              =     -30.93685120 Ry
     estimated scf accuracy    <          6.7E-11 Ry

     iteration # 12     ecut=    30.00 Ry     beta= 0.50
     Davidson diagonalization with overlap
     ethr =  4.79E-13,  avg # of iterations =  3.0

     total cpu time spent up to now is        2.9 secs

     total energy              =     -30.93685120 Ry
     estimated scf accuracy    <          3.0E-11 Ry

     iteration # 13     ecut=    30.00 Ry     beta= 0.50
     Davidson diagonalization with overlap
     ethr =  2.16E-13,  avg # of iterations =  2.0

     total cpu time spent up to now is        3.1 secs

     total energy              =     -30.93685120 Ry
     estimated scf accuracy    <          8.6E-11 Ry

     iteration # 14     ecut=    30.00 Ry     beta= 0.50
     Davidson diagonalization with overlap
     ethr =  2.16E-13,  avg # of iterations =  2.0

     total cpu time spent up to now is        3.4 secs

     total energy              =     -30.93685120 Ry
     estimated scf accuracy    <          5.3E-12 Ry

     iteration # 15     ecut=    30.00 Ry     beta= 0.50
     Davidson diagonalization with overlap
     ethr =  1.00E-13,  avg # of iterations =  2.0

     total cpu time spent up to now is        3.5 secs

     End of self-consistent calculation

          k = 0.0000 0.0000 0.0000 ( 11060 PWs)   bands (ev):

   -18.4772 -14.9330 -10.2915 -10.2899  -8.5696  -7.9003  -7.8999

     highest occupied level (ev):    -7.8999

!    total energy              =     -30.93685120 Ry
     estimated scf accuracy    <          8.1E-15 Ry

     The total energy is the sum of the following terms:
     one-electron contribution =     -91.02303144 Ry
     hartree contribution      =      47.17222064 Ry
     xc contribution           =     -12.78917602 Ry
     ewald contribution        =      25.70313561 Ry

     convergence has been achieved in  15 iterations

     Forces acting on atoms (cartesian axes, Ry/au):

     atom    1 type  1   force =     0.00030443   -0.02997251   -0.00024615
     atom    2 type  1   force =    -0.00030508    0.02997072    0.00024183
     atom    3 type  2   force =    -0.00292425    0.00964914   -0.02208273
     atom    4 type  2   force =    -0.01776955    0.00944821    0.01392135
     atom    5 type  2   force =     0.02041049    0.00960552    0.00844332
     atom    6 type  2   force =     0.01777448   -0.00944729   -0.01391695
     atom    7 type  2   force =     0.00292130   -0.00964974    0.02208198
     atom    8 type  2   force =    -0.02041183   -0.00960405   -0.00844265

     Total force =     0.073031     Total SCF correction =     0.000000

     Writing output data file ./Ethane.save/

     init_run     :      0.26s CPU      0.29s WALL (       1 calls)
     electrons    :      3.09s CPU      3.18s WALL (       1 calls)
     forces       :      0.19s CPU      0.19s WALL (       1 calls)

     Called by init_run:
     wfcinit      :      0.06s CPU      0.06s WALL (       1 calls)
     potinit      :      0.13s CPU      0.15s WALL (       1 calls)
     hinit0       :      0.06s CPU      0.06s WALL (       1 calls)

     Called by electrons:
     c_bands      :      1.32s CPU      1.34s WALL (      15 calls)
     sum_band     :      0.42s CPU      0.42s WALL (      15 calls)
     v_of_rho     :      1.14s CPU      1.21s WALL (      16 calls)
     mix_rho      :      0.23s CPU      0.24s WALL (      15 calls)

     Called by c_bands:
     init_us_2    :      0.04s CPU      0.04s WALL (      31 calls)
     regterg      :      1.27s CPU      1.29s WALL (      15 calls)

     Called by *egterg:
     rdiaghg      :      0.02s CPU      0.02s WALL (      46 calls)
     h_psi        :      1.19s CPU      1.21s WALL (      47 calls)
     g_psi        :      0.00s CPU      0.00s WALL (      31 calls)

     Called by h_psi:
     h_psi:calbec :      0.13s CPU      0.13s WALL (      47 calls)
     vloc_psi     :      0.97s CPU      0.99s WALL (      47 calls)
     add_vuspsi   :      0.09s CPU      0.09s WALL (      47 calls)

     General routines
     calbec       :      0.14s CPU      0.14s WALL (      51 calls)
     fft          :      0.67s CPU      0.69s WALL (     136 calls)
     ffts         :      0.08s CPU      0.08s WALL (      15 calls)
     fftw         :      0.88s CPU      0.90s WALL (     418 calls)

     Parallel routines

     PWSCF        :      3.62s CPU      3.76s WALL


   This run was terminated on:   6:32:15  24May2021            

=------------------------------------------------------------------------------=
   JOB DONE.
=------------------------------------------------------------------------------=
