
     Program PWSCF v.6.7GPU starts on 24May2021 at  6:35:24 

     This program is part of the open-source Quantum ESPRESSO suite
     for quantum simulation of materials; please cite
         "P. Giannozzi et al., J. Phys.:Condens. Matter 21 395502 (2009);
         "P. Giannozzi et al., J. Phys.:Condens. Matter 29 465901 (2017);
         "P. Giannozzi et al., J. Chem. Phys. 152 154105 (2020);
          URL http://www.quantum-espresso.org", 
     in publications or presentations arising from this work. More details at
     http://www.quantum-espresso.org/quote

     Parallel version (MPI), running on     4 processors

     MPI processes distributed on     1 nodes
     R & G space division:  proc/nbgrp/npool/nimage =       4
     Waiting for input...
     Reading input from standard input
     Message from routine read_cards :
     DEPRECATED: no units specified in CELL_PARAMETERS card

     Current dimensions of program PWSCF are:
     Max number of different atomic species (ntypx) = 10
     Max number of k-points (npk) =  40000
     Max angular momentum in pseudopotentials (lmaxx) =  3

     gamma-point specific algorithms are used

     Subspace diagonalization in iterative solution of the eigenvalue problem:
     one sub-group per band group will be used
     scalapack distributed-memory algorithm (size of sub-group:  2*  2 procs)


     Parallelization info
     --------------------
     sticks:   dense  smooth     PW     G-vecs:    dense   smooth      PW
     Min        3022    3022    754               250214   250214   31205
     Max        3024    3024    755               250219   250219   31206
     Sum       12093   12093   3017              1000865  1000865  124823

     Using Slab Decomposition



     bravais-lattice index     =            0
     lattice parameter (alat)  =      20.0000  a.u.
     unit-cell volume          =    8000.0000 (a.u.)^3
     number of atoms/cell      =            8
     number of atomic types    =            2
     number of electrons       =        14.00
     number of Kohn-Sham states=            7
     kinetic-energy cutoff     =      95.0000  Ry
     charge density cutoff     =     380.0000  Ry
     scf convergence threshold =      1.0E-12
     mixing beta               =       0.5000
     number of iterations used =            8  plain     mixing
     Exchange-correlation= PBE
                           (   1   4   3   4   0   0   0)

     celldm(1)=  20.000000  celldm(2)=   0.000000  celldm(3)=   0.000000
     celldm(4)=   0.000000  celldm(5)=   0.000000  celldm(6)=   0.000000

     crystal axes: (cart. coord. in units of alat)
               a(1) = (   1.000000   0.000000   0.000000 )  
               a(2) = (   0.000000   1.000000   0.000000 )  
               a(3) = (   0.000000   0.000000   1.000000 )  

     reciprocal axes: (cart. coord. in units 2 pi/alat)
               b(1) = (  1.000000  0.000000  0.000000 )  
               b(2) = (  0.000000  1.000000  0.000000 )  
               b(3) = (  0.000000  0.000000  1.000000 )  


     PseudoPot. # 1 for C  read from file:
     /home/ciga/builds/pseudo_potentials/C.upf
     MD5 check sum: d80ec9912146af6c4c1760317d1f95e9
     Pseudo is Norm-conserving + core correction, Zval =  4.0
     Generated using ONCVPSP code by D. R. Hamann
     Using radial grid of 1248 points,  4 beta functions with: 
                l(1) =   0
                l(2) =   0
                l(3) =   1
                l(4) =   1

     PseudoPot. # 2 for H  read from file:
     /home/ciga/builds/pseudo_potentials/H.upf
     MD5 check sum: 418cee52d0c413ae40802e6cc37ab9e3
     Pseudo is Norm-conserving, Zval =  1.0
     Generated using ONCVPSP code by D. R. Hamann
     Using radial grid of 1166 points,  3 beta functions with: 
                l(1) =   0
                l(2) =   0
                l(3) =   1

     atomic species   valence    mass     pseudopotential
        C              4.00    12.01070     C ( 1.00)
        H              1.00     1.00794     H ( 1.00)

     No symmetry found



   Cartesian axes

     site n.     atom                  positions (alat units)
         1           C   tau(   1) = (   0.0000094   0.0723482   0.0000000  )
         2           C   tau(   2) = (  -0.0000094  -0.0726883   0.0000000  )
         3           H   tau(   3) = (  -0.0127454   0.1096798  -0.0955438  )
         4           H   tau(   4) = (  -0.0763618   0.1096881   0.0588057  )
         5           H   tau(   5) = (   0.0891345   0.1096665   0.0367290  )
         6           H   tau(   6) = (   0.0763778  -0.1100283  -0.0587847  )
         7           H   tau(   7) = (   0.0127177  -0.1100199   0.0955475  )
         8           H   tau(   8) = (  -0.0891232  -0.1100066  -0.0367565  )

     number of k points=     1
                       cart. coord. in units 2pi/alat
        k(    1) = (   0.0000000   0.0000000   0.0000000), wk =   2.0000000

     Dense  grid:   500433 G-vectors     FFT dimensions: ( 125, 125, 125)

     Estimated max dynamical RAM per process >     110.40 MB

     Estimated total dynamical RAM >     441.58 MB

     Initial potential from superposition of free atoms

     starting charge   13.99986, renormalised to   14.00000

     negative rho (up, down):  6.492E-06 0.000E+00
     Starting wfcs are   14 randomized atomic wfcs

     total cpu time spent up to now is        1.7 secs

     Self-consistent Calculation

     iteration #  1     ecut=    95.00 Ry     beta= 0.50
     Davidson diagonalization with overlap
     ethr =  1.00E-02,  avg # of iterations =  2.0

     negative rho (up, down):  3.347E-07 0.000E+00

     total cpu time spent up to now is        3.1 secs

     total energy              =     -31.04319665 Ry
     estimated scf accuracy    <       1.01445309 Ry

     iteration #  2     ecut=    95.00 Ry     beta= 0.50
     Davidson diagonalization with overlap
     ethr =  7.25E-03,  avg # of iterations =  2.0

     negative rho (up, down):  5.442E-08 0.000E+00

     total cpu time spent up to now is        4.6 secs

     total energy              =     -31.22699194 Ry
     estimated scf accuracy    <       0.07070792 Ry

     iteration #  3     ecut=    95.00 Ry     beta= 0.50
     Davidson diagonalization with overlap
     ethr =  5.05E-04,  avg # of iterations =  1.0

     total cpu time spent up to now is        5.8 secs

     total energy              =     -31.22103009 Ry
     estimated scf accuracy    <       0.01732948 Ry

     iteration #  4     ecut=    95.00 Ry     beta= 0.50
     Davidson diagonalization with overlap
     ethr =  1.24E-04,  avg # of iterations =  2.0

     total cpu time spent up to now is        7.2 secs

     total energy              =     -31.22260973 Ry
     estimated scf accuracy    <       0.00302510 Ry

     iteration #  5     ecut=    95.00 Ry     beta= 0.50
     Davidson diagonalization with overlap
     ethr =  2.16E-05,  avg # of iterations =  2.0

     total cpu time spent up to now is        8.7 secs

     total energy              =     -31.22334545 Ry
     estimated scf accuracy    <       0.00183241 Ry

     iteration #  6     ecut=    95.00 Ry     beta= 0.50
     Davidson diagonalization with overlap
     ethr =  1.31E-05,  avg # of iterations =  2.0

     total cpu time spent up to now is       10.2 secs

     total energy              =     -31.22371011 Ry
     estimated scf accuracy    <       0.00000627 Ry

     iteration #  7     ecut=    95.00 Ry     beta= 0.50
     Davidson diagonalization with overlap
     ethr =  4.48E-08,  avg # of iterations =  3.0

     total cpu time spent up to now is       11.9 secs

     total energy              =     -31.22371809 Ry
     estimated scf accuracy    <       0.00000102 Ry

     iteration #  8     ecut=    95.00 Ry     beta= 0.50
     Davidson diagonalization with overlap
     ethr =  7.26E-09,  avg # of iterations =  2.0

     total cpu time spent up to now is       13.4 secs

     total energy              =     -31.22371828 Ry
     estimated scf accuracy    <       0.00000022 Ry

     iteration #  9     ecut=    95.00 Ry     beta= 0.50
     Davidson diagonalization with overlap
     ethr =  1.54E-09,  avg # of iterations =  3.0

     total cpu time spent up to now is       15.0 secs

     total energy              =     -31.22371824 Ry
     estimated scf accuracy    <       0.00000050 Ry

     iteration # 10     ecut=    95.00 Ry     beta= 0.50
     Davidson diagonalization with overlap
     ethr =  1.54E-09,  avg # of iterations =  2.0

     total cpu time spent up to now is       16.5 secs

     total energy              =     -31.22371822 Ry
     estimated scf accuracy    <       0.00000010 Ry

     iteration # 11     ecut=    95.00 Ry     beta= 0.50
     Davidson diagonalization with overlap
     ethr =  7.44E-10,  avg # of iterations =  2.0

     total cpu time spent up to now is       17.9 secs

     total energy              =     -31.22371824 Ry
     estimated scf accuracy    <          3.1E-10 Ry

     iteration # 12     ecut=    95.00 Ry     beta= 0.50
     Davidson diagonalization with overlap
     ethr =  2.20E-12,  avg # of iterations =  3.0

     total cpu time spent up to now is       19.7 secs

     total energy              =     -31.22371824 Ry
     estimated scf accuracy    <          6.1E-10 Ry

     iteration # 13     ecut=    95.00 Ry     beta= 0.50
     Davidson diagonalization with overlap
     ethr =  2.20E-12,  avg # of iterations =  1.0

     total cpu time spent up to now is       21.0 secs

     total energy              =     -31.22371824 Ry
     estimated scf accuracy    <          5.2E-10 Ry

     iteration # 14     ecut=    95.00 Ry     beta= 0.50
     Davidson diagonalization with overlap
     ethr =  2.20E-12,  avg # of iterations =  2.0

     total cpu time spent up to now is       22.5 secs

     total energy              =     -31.22371824 Ry
     estimated scf accuracy    <          1.5E-12 Ry

     iteration # 15     ecut=    95.00 Ry     beta= 0.50
     Davidson diagonalization with overlap
     ethr =  1.00E-13,  avg # of iterations =  3.0

     total cpu time spent up to now is       24.1 secs

     total energy              =     -31.22371824 Ry
     estimated scf accuracy    <          9.8E-12 Ry

     iteration # 16     ecut=    95.00 Ry     beta= 0.50
     Davidson diagonalization with overlap
     ethr =  1.00E-13,  avg # of iterations =  1.0

     total cpu time spent up to now is       25.4 secs

     total energy              =     -31.22371824 Ry
     estimated scf accuracy    <          9.9E-12 Ry

     iteration # 17     ecut=    95.00 Ry     beta= 0.50
     Davidson diagonalization with overlap
     ethr =  1.00E-13,  avg # of iterations =  1.0

     total cpu time spent up to now is       26.7 secs

     total energy              =     -31.22371824 Ry
     estimated scf accuracy    <          2.6E-12 Ry

     iteration # 18     ecut=    95.00 Ry     beta= 0.50
     Davidson diagonalization with overlap
     ethr =  1.00E-13,  avg # of iterations =  1.0

     total cpu time spent up to now is       27.8 secs

     End of self-consistent calculation

          k = 0.0000 0.0000 0.0000 ( 62412 PWs)   bands (ev):

   -18.2821 -14.8081 -10.2775 -10.2767  -8.6045  -7.9213  -7.9204

     highest occupied level (ev):    -7.9204

!    total energy              =     -31.22371824 Ry
     estimated scf accuracy    <          3.6E-13 Ry

     The total energy is the sum of the following terms:
     one-electron contribution =     -91.53283563 Ry
     hartree contribution      =      47.48636252 Ry
     xc contribution           =     -12.88038079 Ry
     ewald contribution        =      25.70313565 Ry

     convergence has been achieved in  18 iterations

     Forces acting on atoms (cartesian axes, Ry/au):

     atom    1 type  1   force =    -0.00002740   -0.01097924   -0.00001660
     atom    2 type  1   force =     0.00002634    0.01097949    0.00001205
     atom    3 type  2   force =    -0.00043225    0.00215237   -0.00344096
     atom    4 type  2   force =    -0.00273025    0.00215374    0.00213571
     atom    5 type  2   force =     0.00318980    0.00216430    0.00132016
     atom    6 type  2   force =     0.00273237   -0.00215333   -0.00213557
     atom    7 type  2   force =     0.00043461   -0.00215366    0.00343924
     atom    8 type  2   force =    -0.00319321   -0.00216368   -0.00131403

     Total force =     0.018464     Total SCF correction =     0.000001

     Writing output data file ./Ethane.save/

     init_run     :      1.46s CPU      1.60s WALL (       1 calls)
     electrons    :     25.53s CPU     26.15s WALL (       1 calls)
     forces       :      0.97s CPU      1.01s WALL (       1 calls)

     Called by init_run:
     wfcinit      :      0.40s CPU      0.42s WALL (       1 calls)
     potinit      :      0.61s CPU      0.70s WALL (       1 calls)
     hinit0       :      0.23s CPU      0.24s WALL (       1 calls)

     Called by electrons:
     c_bands      :     11.52s CPU     11.60s WALL (      18 calls)
     sum_band     :      3.66s CPU      3.68s WALL (      18 calls)
     v_of_rho     :      7.93s CPU      8.47s WALL (      19 calls)
     mix_rho      :      2.58s CPU      2.61s WALL (      18 calls)

     Called by c_bands:
     init_us_2    :      0.24s CPU      0.25s WALL (      37 calls)
     regterg      :     11.24s CPU     11.32s WALL (      18 calls)

     Called by *egterg:
     rdiaghg      :      0.02s CPU      0.03s WALL (      53 calls)
     h_psi        :     10.57s CPU     10.65s WALL (      54 calls)
     g_psi        :      0.03s CPU      0.03s WALL (      35 calls)

     Called by h_psi:
     h_psi:calbec :      0.77s CPU      0.77s WALL (      54 calls)
     vloc_psi     :      9.12s CPU      9.19s WALL (      54 calls)
     add_vuspsi   :      0.62s CPU      0.62s WALL (      54 calls)

     General routines
     calbec       :      0.82s CPU      0.83s WALL (      58 calls)
     fft          :      5.79s CPU      5.91s WALL (     160 calls)
     ffts         :      0.66s CPU      0.66s WALL (      18 calls)
     fftw         :      8.77s CPU      8.83s WALL (     482 calls)

     Parallel routines

     PWSCF        :     28.04s CPU     28.86s WALL


   This run was terminated on:   6:35:53  24May2021            

=------------------------------------------------------------------------------=
   JOB DONE.
=------------------------------------------------------------------------------=
