
     Program PWSCF v.6.7GPU starts on 24May2021 at  6:32:36 

     This program is part of the open-source Quantum ESPRESSO suite
     for quantum simulation of materials; please cite
         "P. Giannozzi et al., J. Phys.:Condens. Matter 21 395502 (2009);
         "P. Giannozzi et al., J. Phys.:Condens. Matter 29 465901 (2017);
         "P. Giannozzi et al., J. Chem. Phys. 152 154105 (2020);
          URL http://www.quantum-espresso.org", 
     in publications or presentations arising from this work. More details at
     http://www.quantum-espresso.org/quote

     Parallel version (MPI), running on     4 processors

     MPI processes distributed on     1 nodes
     R & G space division:  proc/nbgrp/npool/nimage =       4
     Waiting for input...
     Reading input from standard input
     Message from routine read_cards :
     DEPRECATED: no units specified in CELL_PARAMETERS card

     Current dimensions of program PWSCF are:
     Max number of different atomic species (ntypx) = 10
     Max number of k-points (npk) =  40000
     Max angular momentum in pseudopotentials (lmaxx) =  3

     gamma-point specific algorithms are used

     Subspace diagonalization in iterative solution of the eigenvalue problem:
     one sub-group per band group will be used
     scalapack distributed-memory algorithm (size of sub-group:  2*  2 procs)


     Parallelization info
     --------------------
     sticks:   dense  smooth     PW     G-vecs:    dense   smooth      PW
     Min        1591    1591    398                95580    95580   11954
     Max        1594    1594    400                95582    95582   11960
     Sum        6369    6369   1597               382323   382323   47833

     Using Slab Decomposition



     bravais-lattice index     =            0
     lattice parameter (alat)  =      20.0000  a.u.
     unit-cell volume          =    8000.0000 (a.u.)^3
     number of atoms/cell      =            8
     number of atomic types    =            2
     number of electrons       =        14.00
     number of Kohn-Sham states=            7
     kinetic-energy cutoff     =      50.0000  Ry
     charge density cutoff     =     200.0000  Ry
     scf convergence threshold =      1.0E-12
     mixing beta               =       0.5000
     number of iterations used =            8  plain     mixing
     Exchange-correlation= PBE
                           (   1   4   3   4   0   0   0)

     celldm(1)=  20.000000  celldm(2)=   0.000000  celldm(3)=   0.000000
     celldm(4)=   0.000000  celldm(5)=   0.000000  celldm(6)=   0.000000

     crystal axes: (cart. coord. in units of alat)
               a(1) = (   1.000000   0.000000   0.000000 )  
               a(2) = (   0.000000   1.000000   0.000000 )  
               a(3) = (   0.000000   0.000000   1.000000 )  

     reciprocal axes: (cart. coord. in units 2 pi/alat)
               b(1) = (  1.000000  0.000000  0.000000 )  
               b(2) = (  0.000000  1.000000  0.000000 )  
               b(3) = (  0.000000  0.000000  1.000000 )  


     PseudoPot. # 1 for C  read from file:
     /home/ciga/builds/pseudo_potentials/C.upf
     MD5 check sum: d80ec9912146af6c4c1760317d1f95e9
     Pseudo is Norm-conserving + core correction, Zval =  4.0
     Generated using ONCVPSP code by D. R. Hamann
     Using radial grid of 1248 points,  4 beta functions with: 
                l(1) =   0
                l(2) =   0
                l(3) =   1
                l(4) =   1

     PseudoPot. # 2 for H  read from file:
     /home/ciga/builds/pseudo_potentials/H.upf
     MD5 check sum: 418cee52d0c413ae40802e6cc37ab9e3
     Pseudo is Norm-conserving, Zval =  1.0
     Generated using ONCVPSP code by D. R. Hamann
     Using radial grid of 1166 points,  3 beta functions with: 
                l(1) =   0
                l(2) =   0
                l(3) =   1

     atomic species   valence    mass     pseudopotential
        C              4.00    12.01070     C ( 1.00)
        H              1.00     1.00794     H ( 1.00)

     No symmetry found



   Cartesian axes

     site n.     atom                  positions (alat units)
         1           C   tau(   1) = (   0.0000094   0.0723482   0.0000000  )
         2           C   tau(   2) = (  -0.0000094  -0.0726883   0.0000000  )
         3           H   tau(   3) = (  -0.0127454   0.1096798  -0.0955438  )
         4           H   tau(   4) = (  -0.0763618   0.1096881   0.0588057  )
         5           H   tau(   5) = (   0.0891345   0.1096665   0.0367290  )
         6           H   tau(   6) = (   0.0763778  -0.1100283  -0.0587847  )
         7           H   tau(   7) = (   0.0127177  -0.1100199   0.0955475  )
         8           H   tau(   8) = (  -0.0891232  -0.1100066  -0.0367565  )

     number of k points=     1
                       cart. coord. in units 2pi/alat
        k(    1) = (   0.0000000   0.0000000   0.0000000), wk =   2.0000000

     Dense  grid:   191162 G-vectors     FFT dimensions: (  96,  96,  96)

     Estimated max dynamical RAM per process >      44.55 MB

     Estimated total dynamical RAM >     178.20 MB

     Initial potential from superposition of free atoms

     starting charge   13.99986, renormalised to   14.00000

     negative rho (up, down):  7.980E-04 0.000E+00
     Starting wfcs are   14 randomized atomic wfcs

     total cpu time spent up to now is        0.7 secs

     Self-consistent Calculation

     iteration #  1     ecut=    50.00 Ry     beta= 0.50
     Davidson diagonalization with overlap
     ethr =  1.00E-02,  avg # of iterations =  2.0

     negative rho (up, down):  3.688E-04 0.000E+00

     total cpu time spent up to now is        1.3 secs

     total energy              =     -31.01879479 Ry
     estimated scf accuracy    <       0.99091992 Ry

     iteration #  2     ecut=    50.00 Ry     beta= 0.50
     Davidson diagonalization with overlap
     ethr =  7.08E-03,  avg # of iterations =  2.0

     negative rho (up, down):  1.742E-04 0.000E+00

     total cpu time spent up to now is        1.8 secs

     total energy              =     -31.19511746 Ry
     estimated scf accuracy    <       0.06952839 Ry

     iteration #  3     ecut=    50.00 Ry     beta= 0.50
     Davidson diagonalization with overlap
     ethr =  4.97E-04,  avg # of iterations =  1.0

     negative rho (up, down):  8.461E-06 0.000E+00

     total cpu time spent up to now is        2.3 secs

     total energy              =     -31.18924508 Ry
     estimated scf accuracy    <       0.01685456 Ry

     iteration #  4     ecut=    50.00 Ry     beta= 0.50
     Davidson diagonalization with overlap
     ethr =  1.20E-04,  avg # of iterations =  2.0

     negative rho (up, down):  8.102E-06 0.000E+00

     total cpu time spent up to now is        2.9 secs

     total energy              =     -31.19079457 Ry
     estimated scf accuracy    <       0.00284843 Ry

     iteration #  5     ecut=    50.00 Ry     beta= 0.50
     Davidson diagonalization with overlap
     ethr =  2.03E-05,  avg # of iterations =  2.0

     negative rho (up, down):  8.934E-07 0.000E+00

     total cpu time spent up to now is        3.5 secs

     total energy              =     -31.19147825 Ry
     estimated scf accuracy    <       0.00176775 Ry

     iteration #  6     ecut=    50.00 Ry     beta= 0.50
     Davidson diagonalization with overlap
     ethr =  1.26E-05,  avg # of iterations =  2.0

     negative rho (up, down):  2.021E-08 0.000E+00

     total cpu time spent up to now is        4.0 secs

     total energy              =     -31.19182985 Ry
     estimated scf accuracy    <       0.00000621 Ry

     iteration #  7     ecut=    50.00 Ry     beta= 0.50
     Davidson diagonalization with overlap
     ethr =  4.44E-08,  avg # of iterations =  3.0

     total cpu time spent up to now is        4.7 secs

     total energy              =     -31.19183716 Ry
     estimated scf accuracy    <       0.00000116 Ry

     iteration #  8     ecut=    50.00 Ry     beta= 0.50
     Davidson diagonalization with overlap
     ethr =  8.26E-09,  avg # of iterations =  2.0

     total cpu time spent up to now is        5.2 secs

     total energy              =     -31.19183742 Ry
     estimated scf accuracy    <       0.00000020 Ry

     iteration #  9     ecut=    50.00 Ry     beta= 0.50
     Davidson diagonalization with overlap
     ethr =  1.46E-09,  avg # of iterations =  3.0

     total cpu time spent up to now is        5.8 secs

     total energy              =     -31.19183735 Ry
     estimated scf accuracy    <       0.00000048 Ry

     iteration # 10     ecut=    50.00 Ry     beta= 0.50
     Davidson diagonalization with overlap
     ethr =  1.46E-09,  avg # of iterations =  2.0

     total cpu time spent up to now is        6.4 secs

     total energy              =     -31.19183736 Ry
     estimated scf accuracy    <       0.00000006 Ry

     iteration # 11     ecut=    50.00 Ry     beta= 0.50
     Davidson diagonalization with overlap
     ethr =  4.24E-10,  avg # of iterations =  2.0

     total cpu time spent up to now is        7.0 secs

     total energy              =     -31.19183738 Ry
     estimated scf accuracy    <          1.5E-10 Ry

     iteration # 12     ecut=    50.00 Ry     beta= 0.50
     Davidson diagonalization with overlap
     ethr =  1.05E-12,  avg # of iterations =  3.0

     total cpu time spent up to now is        7.7 secs

     total energy              =     -31.19183738 Ry
     estimated scf accuracy    <          1.4E-10 Ry

     iteration # 13     ecut=    50.00 Ry     beta= 0.50
     Davidson diagonalization with overlap
     ethr =  9.70E-13,  avg # of iterations =  2.0

     total cpu time spent up to now is        8.3 secs

     total energy              =     -31.19183738 Ry
     estimated scf accuracy    <          1.7E-10 Ry

     iteration # 14     ecut=    50.00 Ry     beta= 0.50
     Davidson diagonalization with overlap
     ethr =  9.70E-13,  avg # of iterations =  2.0

     total cpu time spent up to now is        8.8 secs

     total energy              =     -31.19183738 Ry
     estimated scf accuracy    <          4.7E-12 Ry

     iteration # 15     ecut=    50.00 Ry     beta= 0.50
     Davidson diagonalization with overlap
     ethr =  1.00E-13,  avg # of iterations =  1.0

     total cpu time spent up to now is        9.4 secs

     total energy              =     -31.19183738 Ry
     estimated scf accuracy    <          6.0E-12 Ry

     iteration # 16     ecut=    50.00 Ry     beta= 0.50
     Davidson diagonalization with overlap
     ethr =  1.00E-13,  avg # of iterations =  1.0

     total cpu time spent up to now is        9.9 secs

     total energy              =     -31.19183738 Ry
     estimated scf accuracy    <          2.5E-12 Ry

     iteration # 17     ecut=    50.00 Ry     beta= 0.50
     Davidson diagonalization with overlap
     ethr =  1.00E-13,  avg # of iterations =  1.0

     total cpu time spent up to now is       10.3 secs

     End of self-consistent calculation

          k = 0.0000 0.0000 0.0000 ( 23917 PWs)   bands (ev):

   -18.3145 -14.8318 -10.2777 -10.2769  -8.6051  -7.9168  -7.9160

     highest occupied level (ev):    -7.9160

!    total energy              =     -31.19183738 Ry
     estimated scf accuracy    <          9.6E-14 Ry

     The total energy is the sum of the following terms:
     one-electron contribution =     -91.47813382 Ry
     hartree contribution      =      47.45095967 Ry
     xc contribution           =     -12.86779886 Ry
     ewald contribution        =      25.70313564 Ry

     convergence has been achieved in  17 iterations

     Forces acting on atoms (cartesian axes, Ry/au):

     atom    1 type  1   force =    -0.00002419   -0.01342049    0.00002992
     atom    2 type  1   force =     0.00002302    0.01342081   -0.00003472
     atom    3 type  2   force =    -0.00053621    0.00240316   -0.00430285
     atom    4 type  2   force =    -0.00340896    0.00240451    0.00264212
     atom    5 type  2   force =     0.00397426    0.00241175    0.00163430
     atom    6 type  2   force =     0.00341128   -0.00240411   -0.00264172
     atom    7 type  2   force =     0.00053837   -0.00240448    0.00430133
     atom    8 type  2   force =    -0.00397758   -0.00241115   -0.00162837

     Total force =     0.022511     Total SCF correction =     0.000000

     Writing output data file ./Ethane.save/

     init_run     :      0.60s CPU      0.65s WALL (       1 calls)
     electrons    :      9.26s CPU      9.62s WALL (       1 calls)
     forces       :      0.40s CPU      0.43s WALL (       1 calls)

     Called by init_run:
     wfcinit      :      0.14s CPU      0.15s WALL (       1 calls)
     potinit      :      0.29s CPU      0.32s WALL (       1 calls)
     hinit0       :      0.12s CPU      0.13s WALL (       1 calls)

     Called by electrons:
     c_bands      :      3.90s CPU      3.93s WALL (      17 calls)
     sum_band     :      1.37s CPU      1.38s WALL (      17 calls)
     v_of_rho     :      3.19s CPU      3.51s WALL (      18 calls)
     mix_rho      :      0.85s CPU      0.86s WALL (      17 calls)

     Called by c_bands:
     init_us_2    :      0.09s CPU      0.09s WALL (      35 calls)
     regterg      :      3.79s CPU      3.83s WALL (      17 calls)

     Called by *egterg:
     rdiaghg      :      0.02s CPU      0.02s WALL (      50 calls)
     h_psi        :      3.60s CPU      3.65s WALL (      51 calls)
     g_psi        :      0.01s CPU      0.01s WALL (      33 calls)

     Called by h_psi:
     h_psi:calbec :      0.29s CPU      0.29s WALL (      51 calls)
     vloc_psi     :      3.07s CPU      3.11s WALL (      51 calls)
     add_vuspsi   :      0.23s CPU      0.23s WALL (      51 calls)

     General routines
     calbec       :      0.31s CPU      0.31s WALL (      55 calls)
     fft          :      2.23s CPU      2.31s WALL (     152 calls)
     ffts         :      0.25s CPU      0.25s WALL (      17 calls)
     fftw         :      2.84s CPU      2.87s WALL (     460 calls)

     Parallel routines

     PWSCF        :     10.32s CPU     10.77s WALL


   This run was terminated on:   6:32:47  24May2021            

=------------------------------------------------------------------------------=
   JOB DONE.
=------------------------------------------------------------------------------=
