
     Program PWSCF v.6.7GPU starts on 24May2021 at  6:34:56 

     This program is part of the open-source Quantum ESPRESSO suite
     for quantum simulation of materials; please cite
         "P. Giannozzi et al., J. Phys.:Condens. Matter 21 395502 (2009);
         "P. Giannozzi et al., J. Phys.:Condens. Matter 29 465901 (2017);
         "P. Giannozzi et al., J. Chem. Phys. 152 154105 (2020);
          URL http://www.quantum-espresso.org", 
     in publications or presentations arising from this work. More details at
     http://www.quantum-espresso.org/quote

     Parallel version (MPI), running on     4 processors

     MPI processes distributed on     1 nodes
     R & G space division:  proc/nbgrp/npool/nimage =       4
     Waiting for input...
     Reading input from standard input
     Message from routine read_cards :
     DEPRECATED: no units specified in CELL_PARAMETERS card

     Current dimensions of program PWSCF are:
     Max number of different atomic species (ntypx) = 10
     Max number of k-points (npk) =  40000
     Max angular momentum in pseudopotentials (lmaxx) =  3

     gamma-point specific algorithms are used

     Subspace diagonalization in iterative solution of the eigenvalue problem:
     one sub-group per band group will be used
     scalapack distributed-memory algorithm (size of sub-group:  2*  2 procs)


     Parallelization info
     --------------------
     sticks:   dense  smooth     PW     G-vecs:    dense   smooth      PW
     Min        2862    2862    716               230578   230578   28824
     Max        2863    2863    718               230586   230586   28830
     Sum       11449   11449   2869               922329   922329  115313

     Using Slab Decomposition



     bravais-lattice index     =            0
     lattice parameter (alat)  =      20.0000  a.u.
     unit-cell volume          =    8000.0000 (a.u.)^3
     number of atoms/cell      =            8
     number of atomic types    =            2
     number of electrons       =        14.00
     number of Kohn-Sham states=            7
     kinetic-energy cutoff     =      90.0000  Ry
     charge density cutoff     =     360.0000  Ry
     scf convergence threshold =      1.0E-12
     mixing beta               =       0.5000
     number of iterations used =            8  plain     mixing
     Exchange-correlation= PBE
                           (   1   4   3   4   0   0   0)

     celldm(1)=  20.000000  celldm(2)=   0.000000  celldm(3)=   0.000000
     celldm(4)=   0.000000  celldm(5)=   0.000000  celldm(6)=   0.000000

     crystal axes: (cart. coord. in units of alat)
               a(1) = (   1.000000   0.000000   0.000000 )  
               a(2) = (   0.000000   1.000000   0.000000 )  
               a(3) = (   0.000000   0.000000   1.000000 )  

     reciprocal axes: (cart. coord. in units 2 pi/alat)
               b(1) = (  1.000000  0.000000  0.000000 )  
               b(2) = (  0.000000  1.000000  0.000000 )  
               b(3) = (  0.000000  0.000000  1.000000 )  


     PseudoPot. # 1 for C  read from file:
     /home/ciga/builds/pseudo_potentials/C.upf
     MD5 check sum: d80ec9912146af6c4c1760317d1f95e9
     Pseudo is Norm-conserving + core correction, Zval =  4.0
     Generated using ONCVPSP code by D. R. Hamann
     Using radial grid of 1248 points,  4 beta functions with: 
                l(1) =   0
                l(2) =   0
                l(3) =   1
                l(4) =   1

     PseudoPot. # 2 for H  read from file:
     /home/ciga/builds/pseudo_potentials/H.upf
     MD5 check sum: 418cee52d0c413ae40802e6cc37ab9e3
     Pseudo is Norm-conserving, Zval =  1.0
     Generated using ONCVPSP code by D. R. Hamann
     Using radial grid of 1166 points,  3 beta functions with: 
                l(1) =   0
                l(2) =   0
                l(3) =   1

     atomic species   valence    mass     pseudopotential
        C              4.00    12.01070     C ( 1.00)
        H              1.00     1.00794     H ( 1.00)

     No symmetry found



   Cartesian axes

     site n.     atom                  positions (alat units)
         1           C   tau(   1) = (   0.0000094   0.0723482   0.0000000  )
         2           C   tau(   2) = (  -0.0000094  -0.0726883   0.0000000  )
         3           H   tau(   3) = (  -0.0127454   0.1096798  -0.0955438  )
         4           H   tau(   4) = (  -0.0763618   0.1096881   0.0588057  )
         5           H   tau(   5) = (   0.0891345   0.1096665   0.0367290  )
         6           H   tau(   6) = (   0.0763778  -0.1100283  -0.0587847  )
         7           H   tau(   7) = (   0.0127177  -0.1100199   0.0955475  )
         8           H   tau(   8) = (  -0.0891232  -0.1100066  -0.0367565  )

     number of k points=     1
                       cart. coord. in units 2pi/alat
        k(    1) = (   0.0000000   0.0000000   0.0000000), wk =   2.0000000

     Dense  grid:   461165 G-vectors     FFT dimensions: ( 125, 125, 125)

     Estimated max dynamical RAM per process >     104.48 MB

     Estimated total dynamical RAM >     417.94 MB

     Initial potential from superposition of free atoms

     starting charge   13.99986, renormalised to   14.00000

     negative rho (up, down):  1.285E-05 0.000E+00
     Starting wfcs are   14 randomized atomic wfcs

     total cpu time spent up to now is        1.6 secs

     Self-consistent Calculation

     iteration #  1     ecut=    90.00 Ry     beta= 0.50
     Davidson diagonalization with overlap
     ethr =  1.00E-02,  avg # of iterations =  2.0

     negative rho (up, down):  1.348E-06 0.000E+00

     total cpu time spent up to now is        3.0 secs

     total energy              =     -31.04488377 Ry
     estimated scf accuracy    <       1.01197392 Ry

     iteration #  2     ecut=    90.00 Ry     beta= 0.50
     Davidson diagonalization with overlap
     ethr =  7.23E-03,  avg # of iterations =  2.0

     negative rho (up, down):  2.801E-07 0.000E+00

     total cpu time spent up to now is        4.4 secs

     total energy              =     -31.22693985 Ry
     estimated scf accuracy    <       0.07000034 Ry

     iteration #  3     ecut=    90.00 Ry     beta= 0.50
     Davidson diagonalization with overlap
     ethr =  5.00E-04,  avg # of iterations =  1.0

     negative rho (up, down):  1.321E-08 0.000E+00

     total cpu time spent up to now is        5.6 secs

     total energy              =     -31.22107556 Ry
     estimated scf accuracy    <       0.01711341 Ry

     iteration #  4     ecut=    90.00 Ry     beta= 0.50
     Davidson diagonalization with overlap
     ethr =  1.22E-04,  avg # of iterations =  2.0

     total cpu time spent up to now is        7.0 secs

     total energy              =     -31.22263635 Ry
     estimated scf accuracy    <       0.00292498 Ry

     iteration #  5     ecut=    90.00 Ry     beta= 0.50
     Davidson diagonalization with overlap
     ethr =  2.09E-05,  avg # of iterations =  2.0

     total cpu time spent up to now is        8.4 secs

     total energy              =     -31.22333035 Ry
     estimated scf accuracy    <       0.00186245 Ry

     iteration #  6     ecut=    90.00 Ry     beta= 0.50
     Davidson diagonalization with overlap
     ethr =  1.33E-05,  avg # of iterations =  2.0

     total cpu time spent up to now is        9.8 secs

     total energy              =     -31.22370263 Ry
     estimated scf accuracy    <       0.00000672 Ry

     iteration #  7     ecut=    90.00 Ry     beta= 0.50
     Davidson diagonalization with overlap
     ethr =  4.80E-08,  avg # of iterations =  3.0

     total cpu time spent up to now is       11.4 secs

     total energy              =     -31.22371069 Ry
     estimated scf accuracy    <       0.00000110 Ry

     iteration #  8     ecut=    90.00 Ry     beta= 0.50
     Davidson diagonalization with overlap
     ethr =  7.87E-09,  avg # of iterations =  2.0

     total cpu time spent up to now is       12.8 secs

     total energy              =     -31.22371092 Ry
     estimated scf accuracy    <       0.00000022 Ry

     iteration #  9     ecut=    90.00 Ry     beta= 0.50
     Davidson diagonalization with overlap
     ethr =  1.55E-09,  avg # of iterations =  3.0

     total cpu time spent up to now is       14.4 secs

     total energy              =     -31.22371086 Ry
     estimated scf accuracy    <       0.00000050 Ry

     iteration # 10     ecut=    90.00 Ry     beta= 0.50
     Davidson diagonalization with overlap
     ethr =  1.55E-09,  avg # of iterations =  2.0

     total cpu time spent up to now is       15.8 secs

     total energy              =     -31.22371086 Ry
     estimated scf accuracy    <       0.00000009 Ry

     iteration # 11     ecut=    90.00 Ry     beta= 0.50
     Davidson diagonalization with overlap
     ethr =  6.20E-10,  avg # of iterations =  2.0

     total cpu time spent up to now is       17.2 secs

     total energy              =     -31.22371088 Ry
     estimated scf accuracy    <          8.0E-10 Ry

     iteration # 12     ecut=    90.00 Ry     beta= 0.50
     Davidson diagonalization with overlap
     ethr =  5.75E-12,  avg # of iterations =  3.0

     total cpu time spent up to now is       18.7 secs

     total energy              =     -31.22371088 Ry
     estimated scf accuracy    <          7.8E-10 Ry

     iteration # 13     ecut=    90.00 Ry     beta= 0.50
     Davidson diagonalization with overlap
     ethr =  5.56E-12,  avg # of iterations =  1.0

     total cpu time spent up to now is       20.0 secs

     total energy              =     -31.22371088 Ry
     estimated scf accuracy    <          4.5E-10 Ry

     iteration # 14     ecut=    90.00 Ry     beta= 0.50
     Davidson diagonalization with overlap
     ethr =  3.23E-12,  avg # of iterations =  2.0

     total cpu time spent up to now is       21.5 secs

     total energy              =     -31.22371088 Ry
     estimated scf accuracy    <          8.4E-12 Ry

     iteration # 15     ecut=    90.00 Ry     beta= 0.50
     Davidson diagonalization with overlap
     ethr =  1.00E-13,  avg # of iterations =  4.0

     total cpu time spent up to now is       23.0 secs

     total energy              =     -31.22371088 Ry
     estimated scf accuracy    <          2.5E-11 Ry

     iteration # 16     ecut=    90.00 Ry     beta= 0.50
     Davidson diagonalization with overlap
     ethr =  1.00E-13,  avg # of iterations =  1.0

     total cpu time spent up to now is       24.2 secs

     total energy              =     -31.22371088 Ry
     estimated scf accuracy    <          2.0E-11 Ry

     iteration # 17     ecut=    90.00 Ry     beta= 0.50
     Davidson diagonalization with overlap
     ethr =  1.00E-13,  avg # of iterations =  2.0

     total cpu time spent up to now is       25.6 secs

     total energy              =     -31.22371088 Ry
     estimated scf accuracy    <          2.9E-12 Ry

     iteration # 18     ecut=    90.00 Ry     beta= 0.50
     Davidson diagonalization with overlap
     ethr =  1.00E-13,  avg # of iterations =  1.0

     total cpu time spent up to now is       26.7 secs

     End of self-consistent calculation

          k = 0.0000 0.0000 0.0000 ( 57657 PWs)   bands (ev):

   -18.2821 -14.8081 -10.2775 -10.2767  -8.6045  -7.9213  -7.9204

     highest occupied level (ev):    -7.9204

!    total energy              =     -31.22371088 Ry
     estimated scf accuracy    <          2.6E-13 Ry

     The total energy is the sum of the following terms:
     one-electron contribution =     -91.53282728 Ry
     hartree contribution      =      47.48636004 Ry
     xc contribution           =     -12.88037929 Ry
     ewald contribution        =      25.70313565 Ry

     convergence has been achieved in  18 iterations

     Forces acting on atoms (cartesian axes, Ry/au):

     atom    1 type  1   force =    -0.00002734   -0.01098249   -0.00001650
     atom    2 type  1   force =     0.00002648    0.01098275    0.00001167
     atom    3 type  2   force =    -0.00043255    0.00215287   -0.00344299
     atom    4 type  2   force =    -0.00273201    0.00215422    0.00213705
     atom    5 type  2   force =     0.00319173    0.00216478    0.00132096
     atom    6 type  2   force =     0.00273408   -0.00215382   -0.00213684
     atom    7 type  2   force =     0.00043483   -0.00215416    0.00344137
     atom    8 type  2   force =    -0.00319524   -0.00216415   -0.00131473

     Total force =     0.018471     Total SCF correction =     0.000000

     Writing output data file ./Ethane.save/

     init_run     :      1.39s CPU      1.52s WALL (       1 calls)
     electrons    :     24.48s CPU     25.10s WALL (       1 calls)
     forces       :      0.91s CPU      0.95s WALL (       1 calls)

     Called by init_run:
     wfcinit      :      0.39s CPU      0.41s WALL (       1 calls)
     potinit      :      0.59s CPU      0.67s WALL (       1 calls)
     hinit0       :      0.21s CPU      0.23s WALL (       1 calls)

     Called by electrons:
     c_bands      :     11.01s CPU     11.10s WALL (      18 calls)
     sum_band     :      3.52s CPU      3.55s WALL (      18 calls)
     v_of_rho     :      7.71s CPU      8.22s WALL (      19 calls)
     mix_rho      :      2.41s CPU      2.44s WALL (      18 calls)

     Called by c_bands:
     init_us_2    :      0.22s CPU      0.23s WALL (      37 calls)
     regterg      :     10.76s CPU     10.84s WALL (      18 calls)

     Called by *egterg:
     rdiaghg      :      0.02s CPU      0.02s WALL (      55 calls)
     h_psi        :     10.16s CPU     10.24s WALL (      56 calls)
     g_psi        :      0.02s CPU      0.02s WALL (      37 calls)

     Called by h_psi:
     h_psi:calbec :      0.70s CPU      0.70s WALL (      56 calls)
     vloc_psi     :      8.83s CPU      8.91s WALL (      56 calls)
     add_vuspsi   :      0.58s CPU      0.58s WALL (      56 calls)

     General routines
     calbec       :      0.75s CPU      0.75s WALL (      60 calls)
     fft          :      5.55s CPU      5.68s WALL (     160 calls)
     ffts         :      0.63s CPU      0.64s WALL (      18 calls)
     fftw         :      8.44s CPU      8.50s WALL (     480 calls)

     Parallel routines

     PWSCF        :     26.87s CPU     27.68s WALL


   This run was terminated on:   6:35:24  24May2021            

=------------------------------------------------------------------------------=
   JOB DONE.
=------------------------------------------------------------------------------=
