
     Program PWSCF v.6.7GPU starts on 24May2021 at  6:32:47 

     This program is part of the open-source Quantum ESPRESSO suite
     for quantum simulation of materials; please cite
         "P. Giannozzi et al., J. Phys.:Condens. Matter 21 395502 (2009);
         "P. Giannozzi et al., J. Phys.:Condens. Matter 29 465901 (2017);
         "P. Giannozzi et al., J. Chem. Phys. 152 154105 (2020);
          URL http://www.quantum-espresso.org", 
     in publications or presentations arising from this work. More details at
     http://www.quantum-espresso.org/quote

     Parallel version (MPI), running on     4 processors

     MPI processes distributed on     1 nodes
     R & G space division:  proc/nbgrp/npool/nimage =       4
     Waiting for input...
     Reading input from standard input
     Message from routine read_cards :
     DEPRECATED: no units specified in CELL_PARAMETERS card

     Current dimensions of program PWSCF are:
     Max number of different atomic species (ntypx) = 10
     Max number of k-points (npk) =  40000
     Max angular momentum in pseudopotentials (lmaxx) =  3

     gamma-point specific algorithms are used

     Subspace diagonalization in iterative solution of the eigenvalue problem:
     one sub-group per band group will be used
     scalapack distributed-memory algorithm (size of sub-group:  2*  2 procs)


     Parallelization info
     --------------------
     sticks:   dense  smooth     PW     G-vecs:    dense   smooth      PW
     Min        1753    1753    438               110351   110351   13793
     Max        1756    1756    440               110356   110356   13796
     Sum        7017    7017   1757               441415   441415   55179

     Using Slab Decomposition



     bravais-lattice index     =            0
     lattice parameter (alat)  =      20.0000  a.u.
     unit-cell volume          =    8000.0000 (a.u.)^3
     number of atoms/cell      =            8
     number of atomic types    =            2
     number of electrons       =        14.00
     number of Kohn-Sham states=            7
     kinetic-energy cutoff     =      55.0000  Ry
     charge density cutoff     =     220.0000  Ry
     scf convergence threshold =      1.0E-12
     mixing beta               =       0.5000
     number of iterations used =            8  plain     mixing
     Exchange-correlation= PBE
                           (   1   4   3   4   0   0   0)

     celldm(1)=  20.000000  celldm(2)=   0.000000  celldm(3)=   0.000000
     celldm(4)=   0.000000  celldm(5)=   0.000000  celldm(6)=   0.000000

     crystal axes: (cart. coord. in units of alat)
               a(1) = (   1.000000   0.000000   0.000000 )  
               a(2) = (   0.000000   1.000000   0.000000 )  
               a(3) = (   0.000000   0.000000   1.000000 )  

     reciprocal axes: (cart. coord. in units 2 pi/alat)
               b(1) = (  1.000000  0.000000  0.000000 )  
               b(2) = (  0.000000  1.000000  0.000000 )  
               b(3) = (  0.000000  0.000000  1.000000 )  


     PseudoPot. # 1 for C  read from file:
     /home/ciga/builds/pseudo_potentials/C.upf
     MD5 check sum: d80ec9912146af6c4c1760317d1f95e9
     Pseudo is Norm-conserving + core correction, Zval =  4.0
     Generated using ONCVPSP code by D. R. Hamann
     Using radial grid of 1248 points,  4 beta functions with: 
                l(1) =   0
                l(2) =   0
                l(3) =   1
                l(4) =   1

     PseudoPot. # 2 for H  read from file:
     /home/ciga/builds/pseudo_potentials/H.upf
     MD5 check sum: 418cee52d0c413ae40802e6cc37ab9e3
     Pseudo is Norm-conserving, Zval =  1.0
     Generated using ONCVPSP code by D. R. Hamann
     Using radial grid of 1166 points,  3 beta functions with: 
                l(1) =   0
                l(2) =   0
                l(3) =   1

     atomic species   valence    mass     pseudopotential
        C              4.00    12.01070     C ( 1.00)
        H              1.00     1.00794     H ( 1.00)

     No symmetry found



   Cartesian axes

     site n.     atom                  positions (alat units)
         1           C   tau(   1) = (   0.0000094   0.0723482   0.0000000  )
         2           C   tau(   2) = (  -0.0000094  -0.0726883   0.0000000  )
         3           H   tau(   3) = (  -0.0127454   0.1096798  -0.0955438  )
         4           H   tau(   4) = (  -0.0763618   0.1096881   0.0588057  )
         5           H   tau(   5) = (   0.0891345   0.1096665   0.0367290  )
         6           H   tau(   6) = (   0.0763778  -0.1100283  -0.0587847  )
         7           H   tau(   7) = (   0.0127177  -0.1100199   0.0955475  )
         8           H   tau(   8) = (  -0.0891232  -0.1100066  -0.0367565  )

     number of k points=     1
                       cart. coord. in units 2pi/alat
        k(    1) = (   0.0000000   0.0000000   0.0000000), wk =   2.0000000

     Dense  grid:   220708 G-vectors     FFT dimensions: (  96,  96,  96)

     Estimated max dynamical RAM per process >      49.01 MB

     Estimated total dynamical RAM >     196.05 MB

     Initial potential from superposition of free atoms

     starting charge   13.99986, renormalised to   14.00000

     negative rho (up, down):  5.717E-04 0.000E+00
     Starting wfcs are   14 randomized atomic wfcs

     total cpu time spent up to now is        0.8 secs

     Self-consistent Calculation

     iteration #  1     ecut=    55.00 Ry     beta= 0.50
     Davidson diagonalization with overlap
     ethr =  1.00E-02,  avg # of iterations =  2.0

     negative rho (up, down):  2.600E-04 0.000E+00

     total cpu time spent up to now is        1.4 secs

     total energy              =     -31.03046384 Ry
     estimated scf accuracy    <       1.00164131 Ry

     iteration #  2     ecut=    55.00 Ry     beta= 0.50
     Davidson diagonalization with overlap
     ethr =  7.15E-03,  avg # of iterations =  2.0

     negative rho (up, down):  1.218E-04 0.000E+00

     total cpu time spent up to now is        2.0 secs

     total energy              =     -31.21020019 Ry
     estimated scf accuracy    <       0.07007653 Ry

     iteration #  3     ecut=    55.00 Ry     beta= 0.50
     Davidson diagonalization with overlap
     ethr =  5.01E-04,  avg # of iterations =  1.0

     negative rho (up, down):  6.578E-06 0.000E+00

     total cpu time spent up to now is        2.5 secs

     total energy              =     -31.20426695 Ry
     estimated scf accuracy    <       0.01707628 Ry

     iteration #  4     ecut=    55.00 Ry     beta= 0.50
     Davidson diagonalization with overlap
     ethr =  1.22E-04,  avg # of iterations =  2.0

     negative rho (up, down):  6.054E-06 0.000E+00

     total cpu time spent up to now is        3.1 secs

     total energy              =     -31.20583231 Ry
     estimated scf accuracy    <       0.00293988 Ry

     iteration #  5     ecut=    55.00 Ry     beta= 0.50
     Davidson diagonalization with overlap
     ethr =  2.10E-05,  avg # of iterations =  2.0

     negative rho (up, down):  8.039E-07 0.000E+00

     total cpu time spent up to now is        3.7 secs

     total energy              =     -31.20654140 Ry
     estimated scf accuracy    <       0.00180529 Ry

     iteration #  6     ecut=    55.00 Ry     beta= 0.50
     Davidson diagonalization with overlap
     ethr =  1.29E-05,  avg # of iterations =  2.0

     negative rho (up, down):  2.486E-08 0.000E+00

     total cpu time spent up to now is        4.3 secs

     total energy              =     -31.20690115 Ry
     estimated scf accuracy    <       0.00000649 Ry

     iteration #  7     ecut=    55.00 Ry     beta= 0.50
     Davidson diagonalization with overlap
     ethr =  4.64E-08,  avg # of iterations =  3.0

     total cpu time spent up to now is        4.9 secs

     total energy              =     -31.20690880 Ry
     estimated scf accuracy    <       0.00000109 Ry

     iteration #  8     ecut=    55.00 Ry     beta= 0.50
     Davidson diagonalization with overlap
     ethr =  7.82E-09,  avg # of iterations =  2.0

     total cpu time spent up to now is        5.6 secs

     total energy              =     -31.20690904 Ry
     estimated scf accuracy    <       0.00000021 Ry

     iteration #  9     ecut=    55.00 Ry     beta= 0.50
     Davidson diagonalization with overlap
     ethr =  1.52E-09,  avg # of iterations =  3.0

     total cpu time spent up to now is        6.2 secs

     total energy              =     -31.20690897 Ry
     estimated scf accuracy    <       0.00000048 Ry

     iteration # 10     ecut=    55.00 Ry     beta= 0.50
     Davidson diagonalization with overlap
     ethr =  1.52E-09,  avg # of iterations =  2.0

     total cpu time spent up to now is        6.8 secs

     total energy              =     -31.20690898 Ry
     estimated scf accuracy    <       0.00000006 Ry

     iteration # 11     ecut=    55.00 Ry     beta= 0.50
     Davidson diagonalization with overlap
     ethr =  4.63E-10,  avg # of iterations =  2.0

     total cpu time spent up to now is        7.5 secs

     total energy              =     -31.20690900 Ry
     estimated scf accuracy    <          3.2E-10 Ry

     iteration # 12     ecut=    55.00 Ry     beta= 0.50
     Davidson diagonalization with overlap
     ethr =  2.28E-12,  avg # of iterations =  4.0

     total cpu time spent up to now is        8.2 secs

     total energy              =     -31.20690899 Ry
     estimated scf accuracy    <          2.1E-10 Ry

     iteration # 13     ecut=    55.00 Ry     beta= 0.50
     Davidson diagonalization with overlap
     ethr =  1.49E-12,  avg # of iterations =  2.0

     total cpu time spent up to now is        8.8 secs

     total energy              =     -31.20690899 Ry
     estimated scf accuracy    <          2.9E-10 Ry

     iteration # 14     ecut=    55.00 Ry     beta= 0.50
     Davidson diagonalization with overlap
     ethr =  1.49E-12,  avg # of iterations =  2.0

     total cpu time spent up to now is        9.4 secs

     total energy              =     -31.20690899 Ry
     estimated scf accuracy    <          5.8E-12 Ry

     iteration # 15     ecut=    55.00 Ry     beta= 0.50
     Davidson diagonalization with overlap
     ethr =  1.00E-13,  avg # of iterations =  2.0

     total cpu time spent up to now is       10.0 secs

     total energy              =     -31.20690899 Ry
     estimated scf accuracy    <          5.5E-12 Ry

     iteration # 16     ecut=    55.00 Ry     beta= 0.50
     Davidson diagonalization with overlap
     ethr =  1.00E-13,  avg # of iterations =  1.0

     total cpu time spent up to now is       10.5 secs

     End of self-consistent calculation

          k = 0.0000 0.0000 0.0000 ( 27590 PWs)   bands (ev):

   -18.3003 -14.8213 -10.2784 -10.2776  -8.6040  -7.9194  -7.9186

     highest occupied level (ev):    -7.9186

!    total energy              =     -31.20690899 Ry
     estimated scf accuracy    <          3.3E-13 Ry

     The total energy is the sum of the following terms:
     one-electron contribution =     -91.50401383 Ry
     hartree contribution      =      47.46742722 Ry
     xc contribution           =     -12.87345802 Ry
     ewald contribution        =      25.70313564 Ry

     convergence has been achieved in  16 iterations

     Forces acting on atoms (cartesian axes, Ry/au):

     atom    1 type  1   force =    -0.00004721   -0.01324696   -0.00001739
     atom    2 type  1   force =     0.00004609    0.01324725    0.00001273
     atom    3 type  2   force =    -0.00056300    0.00258211   -0.00446156
     atom    4 type  2   force =    -0.00354585    0.00259225    0.00276581
     atom    5 type  2   force =     0.00415394    0.00259745    0.00170738
     atom    6 type  2   force =     0.00354818   -0.00259185   -0.00276540
     atom    7 type  2   force =     0.00056509   -0.00258339    0.00445993
     atom    8 type  2   force =    -0.00415723   -0.00259685   -0.00170150

     Total force =     0.022638     Total SCF correction =     0.000001

     Writing output data file ./Ethane.save/

     init_run     :      0.65s CPU      0.70s WALL (       1 calls)
     electrons    :      9.45s CPU      9.76s WALL (       1 calls)
     forces       :      0.45s CPU      0.46s WALL (       1 calls)

     Called by init_run:
     wfcinit      :      0.15s CPU      0.16s WALL (       1 calls)
     potinit      :      0.31s CPU      0.34s WALL (       1 calls)
     hinit0       :      0.12s CPU      0.13s WALL (       1 calls)

     Called by electrons:
     c_bands      :      4.04s CPU      4.08s WALL (      16 calls)
     sum_band     :      1.36s CPU      1.37s WALL (      16 calls)
     v_of_rho     :      3.20s CPU      3.45s WALL (      17 calls)
     mix_rho      :      0.91s CPU      0.94s WALL (      16 calls)

     Called by c_bands:
     init_us_2    :      0.09s CPU      0.10s WALL (      33 calls)
     regterg      :      3.93s CPU      3.97s WALL (      16 calls)

     Called by *egterg:
     rdiaghg      :      0.02s CPU      0.02s WALL (      50 calls)
     h_psi        :      3.70s CPU      3.74s WALL (      51 calls)
     g_psi        :      0.01s CPU      0.01s WALL (      34 calls)

     Called by h_psi:
     h_psi:calbec :      0.32s CPU      0.32s WALL (      51 calls)
     vloc_psi     :      3.11s CPU      3.14s WALL (      51 calls)
     add_vuspsi   :      0.26s CPU      0.26s WALL (      51 calls)

     General routines
     calbec       :      0.35s CPU      0.35s WALL (      55 calls)
     fft          :      2.31s CPU      2.36s WALL (     144 calls)
     ffts         :      0.25s CPU      0.25s WALL (      16 calls)
     fftw         :      2.87s CPU      2.89s WALL (     446 calls)

     Parallel routines

     PWSCF        :     10.60s CPU     11.00s WALL


   This run was terminated on:   6:32:58  24May2021            

=------------------------------------------------------------------------------=
   JOB DONE.
=------------------------------------------------------------------------------=
