
     Program PWSCF v.6.7GPU starts on 24May2021 at  0:46: 6 

     This program is part of the open-source Quantum ESPRESSO suite
     for quantum simulation of materials; please cite
         "P. Giannozzi et al., J. Phys.:Condens. Matter 21 395502 (2009);
         "P. Giannozzi et al., J. Phys.:Condens. Matter 29 465901 (2017);
         "P. Giannozzi et al., J. Chem. Phys. 152 154105 (2020);
          URL http://www.quantum-espresso.org", 
     in publications or presentations arising from this work. More details at
     http://www.quantum-espresso.org/quote

     Parallel version (MPI), running on     4 processors

     MPI processes distributed on     1 nodes
     R & G space division:  proc/nbgrp/npool/nimage =       4
     Waiting for input...
     Reading input from standard input
     Message from routine read_cards :
     DEPRECATED: no units specified in CELL_PARAMETERS card

     Current dimensions of program PWSCF are:
     Max number of different atomic species (ntypx) = 10
     Max number of k-points (npk) =  40000
     Max angular momentum in pseudopotentials (lmaxx) =  3

     gamma-point specific algorithms are used

     Subspace diagonalization in iterative solution of the eigenvalue problem:
     one sub-group per band group will be used
     scalapack distributed-memory algorithm (size of sub-group:  2*  2 procs)


     Parallelization info
     --------------------
     sticks:   dense  smooth     PW     G-vecs:    dense   smooth      PW
     Min        2862    2862    716               230578   230578   28824
     Max        2863    2863    718               230586   230586   28830
     Sum       11449   11449   2869               922329   922329  115313

     Using Slab Decomposition



     bravais-lattice index     =            0
     lattice parameter (alat)  =      20.0000  a.u.
     unit-cell volume          =    8000.0000 (a.u.)^3
     number of atoms/cell      =           18
     number of atomic types    =            2
     number of electrons       =        42.00
     number of Kohn-Sham states=           21
     kinetic-energy cutoff     =      90.0000  Ry
     charge density cutoff     =     360.0000  Ry
     scf convergence threshold =      1.0E-12
     mixing beta               =       0.5000
     number of iterations used =            8  plain     mixing
     Exchange-correlation= PBE
                           (   1   4   3   4   0   0   0)

     celldm(1)=  20.000000  celldm(2)=   0.000000  celldm(3)=   0.000000
     celldm(4)=   0.000000  celldm(5)=   0.000000  celldm(6)=   0.000000

     crystal axes: (cart. coord. in units of alat)
               a(1) = (   1.000000   0.000000   0.000000 )  
               a(2) = (   0.000000   1.000000   0.000000 )  
               a(3) = (   0.000000   0.000000   1.000000 )  

     reciprocal axes: (cart. coord. in units 2 pi/alat)
               b(1) = (  1.000000  0.000000  0.000000 )  
               b(2) = (  0.000000  1.000000  0.000000 )  
               b(3) = (  0.000000  0.000000  1.000000 )  


     PseudoPot. # 1 for C  read from file:
     /home/ciga/builds/pseudo_potentials/C.upf
     MD5 check sum: d80ec9912146af6c4c1760317d1f95e9
     Pseudo is Norm-conserving + core correction, Zval =  4.0
     Generated using ONCVPSP code by D. R. Hamann
     Using radial grid of 1248 points,  4 beta functions with: 
                l(1) =   0
                l(2) =   0
                l(3) =   1
                l(4) =   1

     PseudoPot. # 2 for H  read from file:
     /home/ciga/builds/pseudo_potentials/H.upf
     MD5 check sum: 418cee52d0c413ae40802e6cc37ab9e3
     Pseudo is Norm-conserving, Zval =  1.0
     Generated using ONCVPSP code by D. R. Hamann
     Using radial grid of 1166 points,  3 beta functions with: 
                l(1) =   0
                l(2) =   0
                l(3) =   1

     atomic species   valence    mass     pseudopotential
        C              4.00    12.01070     C ( 1.00)
        H              1.00     1.00794     H ( 1.00)

     No symmetry found



   Cartesian axes

     site n.     atom                  positions (alat units)
         1           C   tau(   1) = (  -0.2144228  -0.0000037  -0.0226647  )
         2           C   tau(   2) = (  -0.1492605  -0.1139793  -0.0094975  )
         3           C   tau(   3) = (  -0.0199434  -0.1136681   0.0165275  )
         4           C   tau(   4) = (   0.0467953   0.0000038   0.0299330  )
         5           C   tau(   5) = (  -0.0199488   0.1136718   0.0165239  )
         6           C   tau(   6) = (  -0.1492662   0.1139754  -0.0095007  )
         7           H   tau(   7) = (  -0.3154869  -0.0000065  -0.0425490  )
         8           H   tau(   8) = (  -0.1993916  -0.2035092  -0.0190116  )
         9           H   tau(   9) = (   0.0301943  -0.2032326   0.0272614  )
        10           H   tau(  10) = (   0.0301844   0.2032390   0.0272548  )
        11           H   tau(  11) = (  -0.1994030   0.2035016  -0.0190178  )
        12           C   tau(  12) = (   0.2659513  -0.0000036  -0.0675374  )
        13           C   tau(  13) = (   0.1873634   0.0000047   0.0545913  )
        14           H   tau(  14) = (   0.2449671  -0.0837154  -0.1251783  )
        15           H   tau(  15) = (   0.2450090   0.0837288  -0.1251636  )
        16           H   tau(  16) = (   0.3675903  -0.0000310  -0.0464371  )
        17           H   tau(  17) = (   0.2123467  -0.0833402   0.1115232  )
        18           H   tau(  18) = (   0.2123500   0.0833537   0.1115156  )

     number of k points=     1
                       cart. coord. in units 2pi/alat
        k(    1) = (   0.0000000   0.0000000   0.0000000), wk =   2.0000000

     Dense  grid:   461165 G-vectors     FFT dimensions: ( 125, 125, 125)

     Estimated max dynamical RAM per process >     134.88 MB

     Estimated total dynamical RAM >     539.52 MB

     Initial potential from superposition of free atoms

     starting charge   41.99955, renormalised to   42.00000

     negative rho (up, down):  8.089E-06 0.000E+00
     Starting wfcs are   42 randomized atomic wfcs

     total cpu time spent up to now is        2.9 secs

     Self-consistent Calculation

     iteration #  1     ecut=    90.00 Ry     beta= 0.50
     Davidson diagonalization with overlap
     ethr =  1.00E-02,  avg # of iterations =  2.0

     negative rho (up, down):  2.032E-07 0.000E+00

     total cpu time spent up to now is        6.5 secs

     total energy              =    -107.85981443 Ry
     estimated scf accuracy    <       2.04936456 Ry

     iteration #  2     ecut=    90.00 Ry     beta= 0.50
     Davidson diagonalization with overlap
     ethr =  4.88E-03,  avg # of iterations =  2.0

     negative rho (up, down):  2.312E-08 0.000E+00

     total cpu time spent up to now is       10.0 secs

     total energy              =    -108.15622585 Ry
     estimated scf accuracy    <       0.15376984 Ry

     iteration #  3     ecut=    90.00 Ry     beta= 0.50
     Davidson diagonalization with overlap
     ethr =  3.66E-04,  avg # of iterations =  2.0

     total cpu time spent up to now is       12.8 secs

     total energy              =    -108.15491050 Ry
     estimated scf accuracy    <       0.02754388 Ry

     iteration #  4     ecut=    90.00 Ry     beta= 0.50
     Davidson diagonalization with overlap
     ethr =  6.56E-05,  avg # of iterations =  2.0

     total cpu time spent up to now is       16.2 secs

     total energy              =    -108.15838297 Ry
     estimated scf accuracy    <       0.00185362 Ry

     iteration #  5     ecut=    90.00 Ry     beta= 0.50
     Davidson diagonalization with overlap
     ethr =  4.41E-06,  avg # of iterations =  2.0

     total cpu time spent up to now is       19.8 secs

     total energy              =    -108.15902979 Ry
     estimated scf accuracy    <       0.00048260 Ry

     iteration #  6     ecut=    90.00 Ry     beta= 0.50
     Davidson diagonalization with overlap
     ethr =  1.15E-06,  avg # of iterations =  2.0

     total cpu time spent up to now is       23.3 secs

     total energy              =    -108.15912589 Ry
     estimated scf accuracy    <       0.00001175 Ry

     iteration #  7     ecut=    90.00 Ry     beta= 0.50
     Davidson diagonalization with overlap
     ethr =  2.80E-08,  avg # of iterations =  6.0

     total cpu time spent up to now is       28.2 secs

     total energy              =    -108.15913186 Ry
     estimated scf accuracy    <       0.00001172 Ry

     iteration #  8     ecut=    90.00 Ry     beta= 0.50
     Davidson diagonalization with overlap
     ethr =  2.79E-08,  avg # of iterations =  4.0

     total cpu time spent up to now is       31.8 secs

     total energy              =    -108.15913560 Ry
     estimated scf accuracy    <       0.00000285 Ry

     iteration #  9     ecut=    90.00 Ry     beta= 0.50
     Davidson diagonalization with overlap
     ethr =  6.78E-09,  avg # of iterations =  4.0

     total cpu time spent up to now is       35.3 secs

     total energy              =    -108.15913605 Ry
     estimated scf accuracy    <       0.00000013 Ry

     iteration # 10     ecut=    90.00 Ry     beta= 0.50
     Davidson diagonalization with overlap
     ethr =  3.03E-10,  avg # of iterations =  3.0

     total cpu time spent up to now is       39.4 secs

     total energy              =    -108.15913609 Ry
     estimated scf accuracy    <       0.00000013 Ry

     iteration # 11     ecut=    90.00 Ry     beta= 0.50
     Davidson diagonalization with overlap
     ethr =  3.03E-10,  avg # of iterations =  4.0

     total cpu time spent up to now is       42.9 secs

     total energy              =    -108.15913611 Ry
     estimated scf accuracy    <          7.1E-09 Ry

     iteration # 12     ecut=    90.00 Ry     beta= 0.50
     Davidson diagonalization with overlap
     ethr =  1.70E-11,  avg # of iterations =  4.0

     total cpu time spent up to now is       46.6 secs

     total energy              =    -108.15913611 Ry
     estimated scf accuracy    <          1.6E-09 Ry

     iteration # 13     ecut=    90.00 Ry     beta= 0.50
     Davidson diagonalization with overlap
     ethr =  3.84E-12,  avg # of iterations =  5.0

     total cpu time spent up to now is       50.5 secs

     total energy              =    -108.15913611 Ry
     estimated scf accuracy    <          3.9E-10 Ry

     iteration # 14     ecut=    90.00 Ry     beta= 0.50
     Davidson diagonalization with overlap
     ethr =  9.32E-13,  avg # of iterations =  5.0

     total cpu time spent up to now is       53.9 secs

     total energy              =    -108.15913611 Ry
     estimated scf accuracy    <          3.2E-11 Ry

     iteration # 15     ecut=    90.00 Ry     beta= 0.50
     Davidson diagonalization with overlap
     ethr =  1.00E-13,  avg # of iterations =  4.0

     total cpu time spent up to now is       57.6 secs

     total energy              =    -108.15913611 Ry
     estimated scf accuracy    <          3.3E-12 Ry

     iteration # 16     ecut=    90.00 Ry     beta= 0.50
     Davidson diagonalization with overlap
     ethr =  1.00E-13,  avg # of iterations =  1.0

     total cpu time spent up to now is       60.2 secs

     total energy              =    -108.15913611 Ry
     estimated scf accuracy    <          3.4E-12 Ry

     iteration # 17     ecut=    90.00 Ry     beta= 0.50
     Davidson diagonalization with overlap
     ethr =  1.00E-13,  avg # of iterations =  1.0

     total cpu time spent up to now is       62.7 secs

     End of self-consistent calculation

          k = 0.0000 0.0000 0.0000 ( 57657 PWs)   bands (ev):

   -20.5023 -18.7098 -17.5862 -17.0437 -14.7875 -14.0833 -13.3528 -11.7406
   -10.6446 -10.3564  -9.6866  -9.4773  -9.2780  -8.8924  -8.2054  -7.8486
    -7.6447  -7.1618  -7.1512  -5.4883  -5.2675

     highest occupied level (ev):    -5.2675

!    total energy              =    -108.15913611 Ry
     estimated scf accuracy    <          3.1E-13 Ry

     The total energy is the sum of the following terms:
     one-electron contribution =    -386.12825894 Ry
     hartree contribution      =     199.05444335 Ry
     xc contribution           =     -41.29472820 Ry
     ewald contribution        =     120.20940768 Ry

     convergence has been achieved in  17 iterations

     Forces acting on atoms (cartesian axes, Ry/au):

     atom    1 type  1   force =    -0.00108561   -0.00000242   -0.00042589
     atom    2 type  1   force =    -0.00084393   -0.00115669    0.00016606
     atom    3 type  1   force =     0.00089253   -0.00115171    0.00024110
     atom    4 type  1   force =    -0.00020638   -0.00000184   -0.00018516
     atom    5 type  1   force =     0.00089290    0.00115256    0.00024213
     atom    6 type  1   force =    -0.00084578    0.00115626    0.00016451
     atom    7 type  2   force =     0.00107416    0.00000041   -0.00033963
     atom    8 type  2   force =     0.00080284    0.00140403    0.00011409
     atom    9 type  2   force =    -0.00079623    0.00146791   -0.00015418
     atom   10 type  2   force =    -0.00079554   -0.00146636   -0.00015399
     atom   11 type  2   force =     0.00080504   -0.00140140    0.00011462
     atom   12 type  1   force =    -0.00002378    0.00000007   -0.00083562
     atom   13 type  1   force =     0.00075213   -0.00000245    0.00131553
     atom   14 type  2   force =     0.00032012    0.00095335    0.00061570
     atom   15 type  2   force =     0.00031675   -0.00095462    0.00061317
     atom   16 type  2   force =    -0.00082379    0.00000281   -0.00001451
     atom   17 type  2   force =    -0.00021758    0.00102660   -0.00073897
     atom   18 type  2   force =    -0.00021785   -0.00102652   -0.00073897

     Total force =     0.005643     Total SCF correction =     0.000001

     Writing output data file ./Ethybenzene.save/

     init_run     :      2.66s CPU      2.78s WALL (       1 calls)
     electrons    :     59.03s CPU     59.91s WALL (       1 calls)
     forces       :      1.65s CPU      1.70s WALL (       1 calls)

     Called by init_run:
     wfcinit      :      1.58s CPU      1.60s WALL (       1 calls)
     potinit      :      0.63s CPU      0.71s WALL (       1 calls)
     hinit0       :      0.26s CPU      0.27s WALL (       1 calls)

     Called by electrons:
     c_bands      :     42.41s CPU     42.68s WALL (      17 calls)
     sum_band     :      6.59s CPU      6.64s WALL (      17 calls)
     v_of_rho     :      7.98s CPU      8.54s WALL (      18 calls)
     mix_rho      :      2.25s CPU      2.30s WALL (      17 calls)

     Called by c_bands:
     init_us_2    :      0.47s CPU      0.49s WALL (      35 calls)
     regterg      :     41.79s CPU     42.05s WALL (      17 calls)

     Called by *egterg:
     rdiaghg      :      0.09s CPU      0.09s WALL (      70 calls)
     h_psi        :     35.50s CPU     35.73s WALL (      71 calls)
     g_psi        :      0.08s CPU      0.08s WALL (      53 calls)

     Called by h_psi:
     h_psi:calbec :      5.37s CPU      5.39s WALL (      71 calls)
     vloc_psi     :     25.53s CPU     25.73s WALL (      71 calls)
     add_vuspsi   :      4.43s CPU      4.44s WALL (      71 calls)

     General routines
     calbec       :      5.82s CPU      5.83s WALL (      75 calls)
     fft          :      5.43s CPU      5.54s WALL (     152 calls)
     ffts         :      0.60s CPU      0.61s WALL (      17 calls)
     fftw         :     24.50s CPU     24.68s WALL (    1311 calls)

     Parallel routines

     PWSCF        :   1m 3.45s CPU   1m 4.53s WALL


   This run was terminated on:   0:47:11  24May2021            

=------------------------------------------------------------------------------=
   JOB DONE.
=------------------------------------------------------------------------------=
