
     Program PWSCF v.6.7GPU starts on 24May2021 at  0:40:23 

     This program is part of the open-source Quantum ESPRESSO suite
     for quantum simulation of materials; please cite
         "P. Giannozzi et al., J. Phys.:Condens. Matter 21 395502 (2009);
         "P. Giannozzi et al., J. Phys.:Condens. Matter 29 465901 (2017);
         "P. Giannozzi et al., J. Chem. Phys. 152 154105 (2020);
          URL http://www.quantum-espresso.org", 
     in publications or presentations arising from this work. More details at
     http://www.quantum-espresso.org/quote

     Parallel version (MPI), running on     4 processors

     MPI processes distributed on     1 nodes
     R & G space division:  proc/nbgrp/npool/nimage =       4
     Waiting for input...
     Reading input from standard input
     Message from routine read_cards :
     DEPRECATED: no units specified in CELL_PARAMETERS card

     Current dimensions of program PWSCF are:
     Max number of different atomic species (ntypx) = 10
     Max number of k-points (npk) =  40000
     Max angular momentum in pseudopotentials (lmaxx) =  3

     gamma-point specific algorithms are used

     Subspace diagonalization in iterative solution of the eigenvalue problem:
     one sub-group per band group will be used
     scalapack distributed-memory algorithm (size of sub-group:  2*  2 procs)


     Parallelization info
     --------------------
     sticks:   dense  smooth     PW     G-vecs:    dense   smooth      PW
     Min        1591    1591    398                95580    95580   11954
     Max        1594    1594    400                95582    95582   11960
     Sum        6369    6369   1597               382323   382323   47833

     Using Slab Decomposition



     bravais-lattice index     =            0
     lattice parameter (alat)  =      20.0000  a.u.
     unit-cell volume          =    8000.0000 (a.u.)^3
     number of atoms/cell      =           18
     number of atomic types    =            2
     number of electrons       =        42.00
     number of Kohn-Sham states=           21
     kinetic-energy cutoff     =      50.0000  Ry
     charge density cutoff     =     200.0000  Ry
     scf convergence threshold =      1.0E-12
     mixing beta               =       0.5000
     number of iterations used =            8  plain     mixing
     Exchange-correlation= PBE
                           (   1   4   3   4   0   0   0)

     celldm(1)=  20.000000  celldm(2)=   0.000000  celldm(3)=   0.000000
     celldm(4)=   0.000000  celldm(5)=   0.000000  celldm(6)=   0.000000

     crystal axes: (cart. coord. in units of alat)
               a(1) = (   1.000000   0.000000   0.000000 )  
               a(2) = (   0.000000   1.000000   0.000000 )  
               a(3) = (   0.000000   0.000000   1.000000 )  

     reciprocal axes: (cart. coord. in units 2 pi/alat)
               b(1) = (  1.000000  0.000000  0.000000 )  
               b(2) = (  0.000000  1.000000  0.000000 )  
               b(3) = (  0.000000  0.000000  1.000000 )  


     PseudoPot. # 1 for C  read from file:
     /home/ciga/builds/pseudo_potentials/C.upf
     MD5 check sum: d80ec9912146af6c4c1760317d1f95e9
     Pseudo is Norm-conserving + core correction, Zval =  4.0
     Generated using ONCVPSP code by D. R. Hamann
     Using radial grid of 1248 points,  4 beta functions with: 
                l(1) =   0
                l(2) =   0
                l(3) =   1
                l(4) =   1

     PseudoPot. # 2 for H  read from file:
     /home/ciga/builds/pseudo_potentials/H.upf
     MD5 check sum: 418cee52d0c413ae40802e6cc37ab9e3
     Pseudo is Norm-conserving, Zval =  1.0
     Generated using ONCVPSP code by D. R. Hamann
     Using radial grid of 1166 points,  3 beta functions with: 
                l(1) =   0
                l(2) =   0
                l(3) =   1

     atomic species   valence    mass     pseudopotential
        C              4.00    12.01070     C ( 1.00)
        H              1.00     1.00794     H ( 1.00)

     No symmetry found



   Cartesian axes

     site n.     atom                  positions (alat units)
         1           C   tau(   1) = (  -0.2144228  -0.0000037  -0.0226647  )
         2           C   tau(   2) = (  -0.1492605  -0.1139793  -0.0094975  )
         3           C   tau(   3) = (  -0.0199434  -0.1136681   0.0165275  )
         4           C   tau(   4) = (   0.0467953   0.0000038   0.0299330  )
         5           C   tau(   5) = (  -0.0199488   0.1136718   0.0165239  )
         6           C   tau(   6) = (  -0.1492662   0.1139754  -0.0095007  )
         7           H   tau(   7) = (  -0.3154869  -0.0000065  -0.0425490  )
         8           H   tau(   8) = (  -0.1993916  -0.2035092  -0.0190116  )
         9           H   tau(   9) = (   0.0301943  -0.2032326   0.0272614  )
        10           H   tau(  10) = (   0.0301844   0.2032390   0.0272548  )
        11           H   tau(  11) = (  -0.1994030   0.2035016  -0.0190178  )
        12           C   tau(  12) = (   0.2659513  -0.0000036  -0.0675374  )
        13           C   tau(  13) = (   0.1873634   0.0000047   0.0545913  )
        14           H   tau(  14) = (   0.2449671  -0.0837154  -0.1251783  )
        15           H   tau(  15) = (   0.2450090   0.0837288  -0.1251636  )
        16           H   tau(  16) = (   0.3675903  -0.0000310  -0.0464371  )
        17           H   tau(  17) = (   0.2123467  -0.0833402   0.1115232  )
        18           H   tau(  18) = (   0.2123500   0.0833537   0.1115156  )

     number of k points=     1
                       cart. coord. in units 2pi/alat
        k(    1) = (   0.0000000   0.0000000   0.0000000), wk =   2.0000000

     Dense  grid:   191162 G-vectors     FFT dimensions: (  96,  96,  96)

     Estimated max dynamical RAM per process >      57.16 MB

     Estimated total dynamical RAM >     228.63 MB

     Initial potential from superposition of free atoms

     starting charge   41.99955, renormalised to   42.00000

     negative rho (up, down):  7.182E-04 0.000E+00
     Starting wfcs are   42 randomized atomic wfcs

     total cpu time spent up to now is        1.2 secs

     Self-consistent Calculation

     iteration #  1     ecut=    50.00 Ry     beta= 0.50
     Davidson diagonalization with overlap
     ethr =  1.00E-02,  avg # of iterations =  2.0

     negative rho (up, down):  3.087E-04 0.000E+00

     total cpu time spent up to now is        2.6 secs

     total energy              =    -107.75942497 Ry
     estimated scf accuracy    <       2.00323524 Ry

     iteration #  2     ecut=    50.00 Ry     beta= 0.50
     Davidson diagonalization with overlap
     ethr =  4.77E-03,  avg # of iterations =  2.0

     negative rho (up, down):  1.251E-04 0.000E+00

     total cpu time spent up to now is        3.9 secs

     total energy              =    -108.04433225 Ry
     estimated scf accuracy    <       0.15279899 Ry

     iteration #  3     ecut=    50.00 Ry     beta= 0.50
     Davidson diagonalization with overlap
     ethr =  3.64E-04,  avg # of iterations =  2.0

     negative rho (up, down):  8.964E-06 0.000E+00

     total cpu time spent up to now is        5.0 secs

     total energy              =    -108.04363439 Ry
     estimated scf accuracy    <       0.02712580 Ry

     iteration #  4     ecut=    50.00 Ry     beta= 0.50
     Davidson diagonalization with overlap
     ethr =  6.46E-05,  avg # of iterations =  2.0

     negative rho (up, down):  5.864E-07 0.000E+00

     total cpu time spent up to now is        6.3 secs

     total energy              =    -108.04699351 Ry
     estimated scf accuracy    <       0.00185410 Ry

     iteration #  5     ecut=    50.00 Ry     beta= 0.50
     Davidson diagonalization with overlap
     ethr =  4.41E-06,  avg # of iterations =  2.0

     negative rho (up, down):  6.070E-08 0.000E+00

     total cpu time spent up to now is        7.7 secs

     total energy              =    -108.04765274 Ry
     estimated scf accuracy    <       0.00037180 Ry

     iteration #  6     ecut=    50.00 Ry     beta= 0.50
     Davidson diagonalization with overlap
     ethr =  8.85E-07,  avg # of iterations =  2.0

     total cpu time spent up to now is        9.0 secs

     total energy              =    -108.04772455 Ry
     estimated scf accuracy    <       0.00001382 Ry

     iteration #  7     ecut=    50.00 Ry     beta= 0.50
     Davidson diagonalization with overlap
     ethr =  3.29E-08,  avg # of iterations =  5.0

     total cpu time spent up to now is       10.8 secs

     total energy              =    -108.04772950 Ry
     estimated scf accuracy    <       0.00001279 Ry

     iteration #  8     ecut=    50.00 Ry     beta= 0.50
     Davidson diagonalization with overlap
     ethr =  3.04E-08,  avg # of iterations =  4.0

     total cpu time spent up to now is       12.3 secs

     total energy              =    -108.04773379 Ry
     estimated scf accuracy    <       0.00000426 Ry

     iteration #  9     ecut=    50.00 Ry     beta= 0.50
     Davidson diagonalization with overlap
     ethr =  1.01E-08,  avg # of iterations =  4.0

     total cpu time spent up to now is       13.6 secs

     total energy              =    -108.04773421 Ry
     estimated scf accuracy    <       0.00000027 Ry

     iteration # 10     ecut=    50.00 Ry     beta= 0.50
     Davidson diagonalization with overlap
     ethr =  6.39E-10,  avg # of iterations =  3.0

     total cpu time spent up to now is       15.1 secs

     total energy              =    -108.04773432 Ry
     estimated scf accuracy    <       0.00000026 Ry

     iteration # 11     ecut=    50.00 Ry     beta= 0.50
     Davidson diagonalization with overlap
     ethr =  6.11E-10,  avg # of iterations =  2.0

     total cpu time spent up to now is       16.4 secs

     total energy              =    -108.04773435 Ry
     estimated scf accuracy    <          7.8E-09 Ry

     iteration # 12     ecut=    50.00 Ry     beta= 0.50
     Davidson diagonalization with overlap
     ethr =  1.86E-11,  avg # of iterations =  5.0

     total cpu time spent up to now is       18.0 secs

     total energy              =    -108.04773436 Ry
     estimated scf accuracy    <          8.2E-10 Ry

     iteration # 13     ecut=    50.00 Ry     beta= 0.50
     Davidson diagonalization with overlap
     ethr =  1.96E-12,  avg # of iterations =  5.0

     total cpu time spent up to now is       19.3 secs

     total energy              =    -108.04773436 Ry
     estimated scf accuracy    <          4.6E-11 Ry

     iteration # 14     ecut=    50.00 Ry     beta= 0.50
     Davidson diagonalization with overlap
     ethr =  1.10E-13,  avg # of iterations =  5.0

     total cpu time spent up to now is       21.0 secs

     total energy              =    -108.04773436 Ry
     estimated scf accuracy    <          1.0E-11 Ry

     iteration # 15     ecut=    50.00 Ry     beta= 0.50
     Davidson diagonalization with overlap
     ethr =  1.00E-13,  avg # of iterations =  1.0

     total cpu time spent up to now is       22.0 secs

     total energy              =    -108.04773436 Ry
     estimated scf accuracy    <          2.7E-12 Ry

     iteration # 16     ecut=    50.00 Ry     beta= 0.50
     Davidson diagonalization with overlap
     ethr =  1.00E-13,  avg # of iterations =  2.0

     total cpu time spent up to now is       23.1 secs

     total energy              =    -108.04773436 Ry
     estimated scf accuracy    <          1.2E-12 Ry

     iteration # 17     ecut=    50.00 Ry     beta= 0.50
     Davidson diagonalization with overlap
     ethr =  1.00E-13,  avg # of iterations =  1.0

     total cpu time spent up to now is       24.1 secs

     End of self-consistent calculation

          k = 0.0000 0.0000 0.0000 ( 23917 PWs)   bands (ev):

   -20.5401 -18.7443 -17.6202 -17.0762 -14.8123 -14.1041 -13.3712 -11.7477
   -10.6484 -10.3641  -9.6872  -9.4769  -9.2754  -8.8936  -8.2022  -7.8487
    -7.6394  -7.1592  -7.1458  -5.4841  -5.2630

     highest occupied level (ev):    -5.2630

!    total energy              =    -108.04773436 Ry
     estimated scf accuracy    <          7.8E-13 Ry

     The total energy is the sum of the following terms:
     one-electron contribution =    -385.93475065 Ry
     hartree contribution      =     198.92887996 Ry
     xc contribution           =     -41.25127133 Ry
     ewald contribution        =     120.20940767 Ry

     convergence has been achieved in  17 iterations

     Forces acting on atoms (cartesian axes, Ry/au):

     atom    1 type  1   force =    -0.00637144   -0.00000259   -0.00161463
     atom    2 type  1   force =    -0.00340154   -0.00574102   -0.00029571
     atom    3 type  1   force =     0.00319081   -0.00558636    0.00070553
     atom    4 type  1   force =     0.00600752   -0.00000191    0.00131358
     atom    5 type  1   force =     0.00319079    0.00558751    0.00070661
     atom    6 type  1   force =    -0.00340347    0.00574053   -0.00029720
     atom    7 type  2   force =     0.00052119    0.00000041   -0.00045517
     atom    8 type  2   force =     0.00053919    0.00092079    0.00007857
     atom    9 type  2   force =    -0.00050904    0.00094230   -0.00010514
     atom   10 type  2   force =    -0.00050842   -0.00094074   -0.00010497
     atom   11 type  2   force =     0.00054137   -0.00091821    0.00007909
     atom   12 type  1   force =    -0.00122804    0.00000022    0.00126565
     atom   13 type  1   force =     0.00117680   -0.00000249   -0.00118164
     atom   14 type  2   force =     0.00010698    0.00011226    0.00009304
     atom   15 type  2   force =     0.00010388   -0.00011334    0.00009059
     atom   16 type  2   force =     0.00019449    0.00000254    0.00027469
     atom   17 type  2   force =    -0.00007542    0.00019506   -0.00027641
     atom   18 type  2   force =    -0.00007564   -0.00019496   -0.00027648

     Total force =     0.016292     Total SCF correction =     0.000002

     Writing output data file ./Ethybenzene.save/

     init_run     :      1.07s CPU      1.12s WALL (       1 calls)
     electrons    :     22.49s CPU     22.93s WALL (       1 calls)
     forces       :      0.70s CPU      0.73s WALL (       1 calls)

     Called by init_run:
     wfcinit      :      0.58s CPU      0.60s WALL (       1 calls)
     potinit      :      0.31s CPU      0.33s WALL (       1 calls)
     hinit0       :      0.11s CPU      0.12s WALL (       1 calls)

     Called by electrons:
     c_bands      :     15.57s CPU     15.71s WALL (      17 calls)
     sum_band     :      2.67s CPU      2.70s WALL (      17 calls)
     v_of_rho     :      3.47s CPU      3.75s WALL (      18 calls)
     mix_rho      :      0.86s CPU      0.86s WALL (      17 calls)

     Called by c_bands:
     init_us_2    :      0.19s CPU      0.20s WALL (      35 calls)
     regterg      :     15.31s CPU     15.45s WALL (      17 calls)

     Called by *egterg:
     rdiaghg      :      0.08s CPU      0.08s WALL (      66 calls)
     h_psi        :     13.04s CPU     13.17s WALL (      67 calls)
     g_psi        :      0.03s CPU      0.03s WALL (      49 calls)

     Called by h_psi:
     h_psi:calbec :      2.17s CPU      2.18s WALL (      67 calls)
     vloc_psi     :      9.10s CPU      9.22s WALL (      67 calls)
     add_vuspsi   :      1.70s CPU      1.70s WALL (      67 calls)

     General routines
     calbec       :      2.34s CPU      2.35s WALL (      71 calls)
     fft          :      2.28s CPU      2.33s WALL (     152 calls)
     ffts         :      0.25s CPU      0.26s WALL (      17 calls)
     fftw         :      8.43s CPU      8.53s WALL (    1299 calls)

     Parallel routines

     PWSCF        :     24.33s CPU     24.87s WALL


   This run was terminated on:   0:40:47  24May2021            

=------------------------------------------------------------------------------=
   JOB DONE.
=------------------------------------------------------------------------------=
