
     Program PWSCF v.6.7GPU starts on 24May2021 at  0:43:17 

     This program is part of the open-source Quantum ESPRESSO suite
     for quantum simulation of materials; please cite
         "P. Giannozzi et al., J. Phys.:Condens. Matter 21 395502 (2009);
         "P. Giannozzi et al., J. Phys.:Condens. Matter 29 465901 (2017);
         "P. Giannozzi et al., J. Chem. Phys. 152 154105 (2020);
          URL http://www.quantum-espresso.org", 
     in publications or presentations arising from this work. More details at
     http://www.quantum-espresso.org/quote

     Parallel version (MPI), running on     4 processors

     MPI processes distributed on     1 nodes
     R & G space division:  proc/nbgrp/npool/nimage =       4
     Waiting for input...
     Reading input from standard input
     Message from routine read_cards :
     DEPRECATED: no units specified in CELL_PARAMETERS card

     Current dimensions of program PWSCF are:
     Max number of different atomic species (ntypx) = 10
     Max number of k-points (npk) =  40000
     Max angular momentum in pseudopotentials (lmaxx) =  3

     gamma-point specific algorithms are used

     Subspace diagonalization in iterative solution of the eigenvalue problem:
     one sub-group per band group will be used
     scalapack distributed-memory algorithm (size of sub-group:  2*  2 procs)


     Parallelization info
     --------------------
     sticks:   dense  smooth     PW     G-vecs:    dense   smooth      PW
     Min        2386    2386    595               175366   175366   21912
     Max        2388    2388    598               175372   175372   21918
     Sum        9549    9549   2385               701475   701475   87655

     Using Slab Decomposition



     bravais-lattice index     =            0
     lattice parameter (alat)  =      20.0000  a.u.
     unit-cell volume          =    8000.0000 (a.u.)^3
     number of atoms/cell      =           18
     number of atomic types    =            2
     number of electrons       =        42.00
     number of Kohn-Sham states=           21
     kinetic-energy cutoff     =      75.0000  Ry
     charge density cutoff     =     300.0000  Ry
     scf convergence threshold =      1.0E-12
     mixing beta               =       0.5000
     number of iterations used =            8  plain     mixing
     Exchange-correlation= PBE
                           (   1   4   3   4   0   0   0)

     celldm(1)=  20.000000  celldm(2)=   0.000000  celldm(3)=   0.000000
     celldm(4)=   0.000000  celldm(5)=   0.000000  celldm(6)=   0.000000

     crystal axes: (cart. coord. in units of alat)
               a(1) = (   1.000000   0.000000   0.000000 )  
               a(2) = (   0.000000   1.000000   0.000000 )  
               a(3) = (   0.000000   0.000000   1.000000 )  

     reciprocal axes: (cart. coord. in units 2 pi/alat)
               b(1) = (  1.000000  0.000000  0.000000 )  
               b(2) = (  0.000000  1.000000  0.000000 )  
               b(3) = (  0.000000  0.000000  1.000000 )  


     PseudoPot. # 1 for C  read from file:
     /home/ciga/builds/pseudo_potentials/C.upf
     MD5 check sum: d80ec9912146af6c4c1760317d1f95e9
     Pseudo is Norm-conserving + core correction, Zval =  4.0
     Generated using ONCVPSP code by D. R. Hamann
     Using radial grid of 1248 points,  4 beta functions with: 
                l(1) =   0
                l(2) =   0
                l(3) =   1
                l(4) =   1

     PseudoPot. # 2 for H  read from file:
     /home/ciga/builds/pseudo_potentials/H.upf
     MD5 check sum: 418cee52d0c413ae40802e6cc37ab9e3
     Pseudo is Norm-conserving, Zval =  1.0
     Generated using ONCVPSP code by D. R. Hamann
     Using radial grid of 1166 points,  3 beta functions with: 
                l(1) =   0
                l(2) =   0
                l(3) =   1

     atomic species   valence    mass     pseudopotential
        C              4.00    12.01070     C ( 1.00)
        H              1.00     1.00794     H ( 1.00)

     No symmetry found



   Cartesian axes

     site n.     atom                  positions (alat units)
         1           C   tau(   1) = (  -0.2144228  -0.0000037  -0.0226647  )
         2           C   tau(   2) = (  -0.1492605  -0.1139793  -0.0094975  )
         3           C   tau(   3) = (  -0.0199434  -0.1136681   0.0165275  )
         4           C   tau(   4) = (   0.0467953   0.0000038   0.0299330  )
         5           C   tau(   5) = (  -0.0199488   0.1136718   0.0165239  )
         6           C   tau(   6) = (  -0.1492662   0.1139754  -0.0095007  )
         7           H   tau(   7) = (  -0.3154869  -0.0000065  -0.0425490  )
         8           H   tau(   8) = (  -0.1993916  -0.2035092  -0.0190116  )
         9           H   tau(   9) = (   0.0301943  -0.2032326   0.0272614  )
        10           H   tau(  10) = (   0.0301844   0.2032390   0.0272548  )
        11           H   tau(  11) = (  -0.1994030   0.2035016  -0.0190178  )
        12           C   tau(  12) = (   0.2659513  -0.0000036  -0.0675374  )
        13           C   tau(  13) = (   0.1873634   0.0000047   0.0545913  )
        14           H   tau(  14) = (   0.2449671  -0.0837154  -0.1251783  )
        15           H   tau(  15) = (   0.2450090   0.0837288  -0.1251636  )
        16           H   tau(  16) = (   0.3675903  -0.0000310  -0.0464371  )
        17           H   tau(  17) = (   0.2123467  -0.0833402   0.1115232  )
        18           H   tau(  18) = (   0.2123500   0.0833537   0.1115156  )

     number of k points=     1
                       cart. coord. in units 2pi/alat
        k(    1) = (   0.0000000   0.0000000   0.0000000), wk =   2.0000000

     Dense  grid:   350738 G-vectors     FFT dimensions: ( 120, 120, 120)

     Estimated max dynamical RAM per process >     106.29 MB

     Estimated total dynamical RAM >     425.14 MB

     Initial potential from superposition of free atoms

     starting charge   41.99955, renormalised to   42.00000

     negative rho (up, down):  8.288E-05 0.000E+00
     Starting wfcs are   42 randomized atomic wfcs

     total cpu time spent up to now is        2.2 secs

     Self-consistent Calculation

     iteration #  1     ecut=    75.00 Ry     beta= 0.50
     Davidson diagonalization with overlap
     ethr =  1.00E-02,  avg # of iterations =  2.0

     negative rho (up, down):  2.135E-05 0.000E+00

     total cpu time spent up to now is        5.0 secs

     total energy              =    -107.85807311 Ry
     estimated scf accuracy    <       2.04850145 Ry

     iteration #  2     ecut=    75.00 Ry     beta= 0.50
     Davidson diagonalization with overlap
     ethr =  4.88E-03,  avg # of iterations =  2.0

     negative rho (up, down):  7.183E-06 0.000E+00

     total cpu time spent up to now is        7.7 secs

     total energy              =    -108.15424749 Ry
     estimated scf accuracy    <       0.15379997 Ry

     iteration #  3     ecut=    75.00 Ry     beta= 0.50
     Davidson diagonalization with overlap
     ethr =  3.66E-04,  avg # of iterations =  2.0

     negative rho (up, down):  5.014E-07 0.000E+00

     total cpu time spent up to now is        9.9 secs

     total energy              =    -108.15292981 Ry
     estimated scf accuracy    <       0.02753959 Ry

     iteration #  4     ecut=    75.00 Ry     beta= 0.50
     Davidson diagonalization with overlap
     ethr =  6.56E-05,  avg # of iterations =  2.0

     negative rho (up, down):  5.284E-08 0.000E+00

     total cpu time spent up to now is       12.5 secs

     total energy              =    -108.15640360 Ry
     estimated scf accuracy    <       0.00186124 Ry

     iteration #  5     ecut=    75.00 Ry     beta= 0.50
     Davidson diagonalization with overlap
     ethr =  4.43E-06,  avg # of iterations =  2.0

     negative rho (up, down):  1.676E-08 0.000E+00

     total cpu time spent up to now is       15.3 secs

     total energy              =    -108.15705252 Ry
     estimated scf accuracy    <       0.00049494 Ry

     iteration #  6     ecut=    75.00 Ry     beta= 0.50
     Davidson diagonalization with overlap
     ethr =  1.18E-06,  avg # of iterations =  2.0

     total cpu time spent up to now is       18.0 secs

     total energy              =    -108.15715128 Ry
     estimated scf accuracy    <       0.00001177 Ry

     iteration #  7     ecut=    75.00 Ry     beta= 0.50
     Davidson diagonalization with overlap
     ethr =  2.80E-08,  avg # of iterations =  6.0

     total cpu time spent up to now is       21.7 secs

     total energy              =    -108.15715765 Ry
     estimated scf accuracy    <       0.00001127 Ry

     iteration #  8     ecut=    75.00 Ry     beta= 0.50
     Davidson diagonalization with overlap
     ethr =  2.68E-08,  avg # of iterations =  4.0

     total cpu time spent up to now is       24.5 secs

     total energy              =    -108.15716125 Ry
     estimated scf accuracy    <       0.00000270 Ry

     iteration #  9     ecut=    75.00 Ry     beta= 0.50
     Davidson diagonalization with overlap
     ethr =  6.43E-09,  avg # of iterations =  4.0

     total cpu time spent up to now is       27.2 secs

     total energy              =    -108.15716168 Ry
     estimated scf accuracy    <       0.00000012 Ry

     iteration # 10     ecut=    75.00 Ry     beta= 0.50
     Davidson diagonalization with overlap
     ethr =  2.86E-10,  avg # of iterations =  3.0

     total cpu time spent up to now is       30.4 secs

     total energy              =    -108.15716171 Ry
     estimated scf accuracy    <       0.00000014 Ry

     iteration # 11     ecut=    75.00 Ry     beta= 0.50
     Davidson diagonalization with overlap
     ethr =  2.86E-10,  avg # of iterations =  4.0

     total cpu time spent up to now is       33.1 secs

     total energy              =    -108.15716173 Ry
     estimated scf accuracy    <          5.0E-09 Ry

     iteration # 12     ecut=    75.00 Ry     beta= 0.50
     Davidson diagonalization with overlap
     ethr =  1.19E-11,  avg # of iterations =  3.0

     total cpu time spent up to now is       36.0 secs

     total energy              =    -108.15716173 Ry
     estimated scf accuracy    <          1.2E-09 Ry

     iteration # 13     ecut=    75.00 Ry     beta= 0.50
     Davidson diagonalization with overlap
     ethr =  2.90E-12,  avg # of iterations =  5.0

     total cpu time spent up to now is       39.3 secs

     total energy              =    -108.15716173 Ry
     estimated scf accuracy    <          5.3E-10 Ry

     iteration # 14     ecut=    75.00 Ry     beta= 0.50
     Davidson diagonalization with overlap
     ethr =  1.27E-12,  avg # of iterations =  3.0

     total cpu time spent up to now is       41.7 secs

     total energy              =    -108.15716173 Ry
     estimated scf accuracy    <          8.3E-11 Ry

     iteration # 15     ecut=    75.00 Ry     beta= 0.50
     Davidson diagonalization with overlap
     ethr =  1.98E-13,  avg # of iterations =  6.0

     total cpu time spent up to now is       44.9 secs

     total energy              =    -108.15716173 Ry
     estimated scf accuracy    <          2.7E-11 Ry

     iteration # 16     ecut=    75.00 Ry     beta= 0.50
     Davidson diagonalization with overlap
     ethr =  1.00E-13,  avg # of iterations =  3.0

     total cpu time spent up to now is       47.1 secs

     total energy              =    -108.15716173 Ry
     estimated scf accuracy    <          1.5E-12 Ry

     iteration # 17     ecut=    75.00 Ry     beta= 0.50
     Davidson diagonalization with overlap
     ethr =  1.00E-13,  avg # of iterations =  2.0

     total cpu time spent up to now is       49.3 secs

     total energy              =    -108.15716173 Ry
     estimated scf accuracy    <          1.5E-12 Ry

     iteration # 18     ecut=    75.00 Ry     beta= 0.50
     Davidson diagonalization with overlap
     ethr =  1.00E-13,  avg # of iterations =  1.0

     total cpu time spent up to now is       51.4 secs

     total energy              =    -108.15716173 Ry
     estimated scf accuracy    <          1.2E-12 Ry

     iteration # 19     ecut=    75.00 Ry     beta= 0.50
     Davidson diagonalization with overlap
     ethr =  1.00E-13,  avg # of iterations =  1.0

     total cpu time spent up to now is       53.3 secs

     End of self-consistent calculation

          k = 0.0000 0.0000 0.0000 ( 43828 PWs)   bands (ev):

   -20.5032 -18.7105 -17.5870 -17.0444 -14.7880 -14.0839 -13.3533 -11.7409
   -10.6447 -10.3567  -9.6868  -9.4774  -9.2781  -8.8926  -8.2055  -7.8488
    -7.6447  -7.1618  -7.1512  -5.4883  -5.2675

     highest occupied level (ev):    -5.2675

!    total energy              =    -108.15716173 Ry
     estimated scf accuracy    <          4.8E-13 Ry

     The total energy is the sum of the following terms:
     one-electron contribution =    -386.12492635 Ry
     hartree contribution      =     199.05208555 Ry
     xc contribution           =     -41.29372861 Ry
     ewald contribution        =     120.20940768 Ry

     convergence has been achieved in  19 iterations

     Forces acting on atoms (cartesian axes, Ry/au):

     atom    1 type  1   force =    -0.00105110   -0.00000245   -0.00042505
     atom    2 type  1   force =    -0.00082916   -0.00113002    0.00017189
     atom    3 type  1   force =     0.00086566   -0.00113694    0.00023024
     atom    4 type  1   force =    -0.00028082   -0.00000183   -0.00018904
     atom    5 type  1   force =     0.00086598    0.00113772    0.00023132
     atom    6 type  1   force =    -0.00083102    0.00112966    0.00017033
     atom    7 type  2   force =     0.00102234    0.00000041   -0.00034824
     atom    8 type  2   force =     0.00077717    0.00135899    0.00011136
     atom    9 type  2   force =    -0.00077179    0.00142213   -0.00015102
     atom   10 type  2   force =    -0.00077111   -0.00142059   -0.00015083
     atom   11 type  2   force =     0.00077938   -0.00135634    0.00011189
     atom   12 type  1   force =    -0.00000096    0.00000007   -0.00087021
     atom   13 type  1   force =     0.00079794   -0.00000243    0.00136464
     atom   14 type  2   force =     0.00030797    0.00090749    0.00058626
     atom   15 type  2   force =     0.00030463   -0.00090875    0.00058374
     atom   16 type  2   force =    -0.00077245    0.00000280   -0.00000102
     atom   17 type  2   force =    -0.00020620    0.00098457   -0.00071313
     atom   18 type  2   force =    -0.00020646   -0.00098448   -0.00071312

     Total force =     0.005510     Total SCF correction =     0.000001

     Writing output data file ./Ethybenzene.save/

     init_run     :      2.06s CPU      2.16s WALL (       1 calls)
     electrons    :     50.34s CPU     51.14s WALL (       1 calls)
     forces       :      1.28s CPU      1.33s WALL (       1 calls)

     Called by init_run:
     wfcinit      :      1.20s CPU      1.22s WALL (       1 calls)
     potinit      :      0.53s CPU      0.59s WALL (       1 calls)
     hinit0       :      0.20s CPU      0.21s WALL (       1 calls)

     Called by electrons:
     c_bands      :     35.09s CPU     35.29s WALL (      19 calls)
     sum_band     :      5.99s CPU      6.02s WALL (      19 calls)
     v_of_rho     :      7.34s CPU      7.93s WALL (      20 calls)
     mix_rho      :      2.06s CPU      2.07s WALL (      19 calls)

     Called by c_bands:
     init_us_2    :      0.41s CPU      0.41s WALL (      39 calls)
     regterg      :     34.57s CPU     34.77s WALL (      19 calls)

     Called by *egterg:
     rdiaghg      :      0.09s CPU      0.09s WALL (      76 calls)
     h_psi        :     29.37s CPU     29.54s WALL (      77 calls)
     g_psi        :      0.07s CPU      0.07s WALL (      57 calls)

     Called by h_psi:
     h_psi:calbec :      4.31s CPU      4.33s WALL (      77 calls)
     vloc_psi     :     21.32s CPU     21.47s WALL (      77 calls)
     add_vuspsi   :      3.59s CPU      3.60s WALL (      77 calls)

     General routines
     calbec       :      4.64s CPU      4.65s WALL (      81 calls)
     fft          :      4.84s CPU      4.94s WALL (     168 calls)
     ffts         :      0.54s CPU      0.55s WALL (      19 calls)
     fftw         :     20.08s CPU     20.21s WALL (    1439 calls)

     Parallel routines

     PWSCF        :     53.77s CPU     54.74s WALL


   This run was terminated on:   0:44:12  24May2021            

=------------------------------------------------------------------------------=
   JOB DONE.
=------------------------------------------------------------------------------=
