
     Program PWSCF v.6.7GPU starts on 24May2021 at  0:45: 5 

     This program is part of the open-source Quantum ESPRESSO suite
     for quantum simulation of materials; please cite
         "P. Giannozzi et al., J. Phys.:Condens. Matter 21 395502 (2009);
         "P. Giannozzi et al., J. Phys.:Condens. Matter 29 465901 (2017);
         "P. Giannozzi et al., J. Chem. Phys. 152 154105 (2020);
          URL http://www.quantum-espresso.org", 
     in publications or presentations arising from this work. More details at
     http://www.quantum-espresso.org/quote

     Parallel version (MPI), running on     4 processors

     MPI processes distributed on     1 nodes
     R & G space division:  proc/nbgrp/npool/nimage =       4
     Waiting for input...
     Reading input from standard input
     Message from routine read_cards :
     DEPRECATED: no units specified in CELL_PARAMETERS card

     Current dimensions of program PWSCF are:
     Max number of different atomic species (ntypx) = 10
     Max number of k-points (npk) =  40000
     Max angular momentum in pseudopotentials (lmaxx) =  3

     gamma-point specific algorithms are used

     Subspace diagonalization in iterative solution of the eigenvalue problem:
     one sub-group per band group will be used
     scalapack distributed-memory algorithm (size of sub-group:  2*  2 procs)


     Parallelization info
     --------------------
     sticks:   dense  smooth     PW     G-vecs:    dense   smooth      PW
     Min        2700    2700    675               211636   211636   26505
     Max        2704    2704    678               211641   211641   26514
     Sum       10805   10805   2709               846553   846553  106047

     Using Slab Decomposition



     bravais-lattice index     =            0
     lattice parameter (alat)  =      20.0000  a.u.
     unit-cell volume          =    8000.0000 (a.u.)^3
     number of atoms/cell      =           18
     number of atomic types    =            2
     number of electrons       =        42.00
     number of Kohn-Sham states=           21
     kinetic-energy cutoff     =      85.0000  Ry
     charge density cutoff     =     340.0000  Ry
     scf convergence threshold =      1.0E-12
     mixing beta               =       0.5000
     number of iterations used =            8  plain     mixing
     Exchange-correlation= PBE
                           (   1   4   3   4   0   0   0)

     celldm(1)=  20.000000  celldm(2)=   0.000000  celldm(3)=   0.000000
     celldm(4)=   0.000000  celldm(5)=   0.000000  celldm(6)=   0.000000

     crystal axes: (cart. coord. in units of alat)
               a(1) = (   1.000000   0.000000   0.000000 )  
               a(2) = (   0.000000   1.000000   0.000000 )  
               a(3) = (   0.000000   0.000000   1.000000 )  

     reciprocal axes: (cart. coord. in units 2 pi/alat)
               b(1) = (  1.000000  0.000000  0.000000 )  
               b(2) = (  0.000000  1.000000  0.000000 )  
               b(3) = (  0.000000  0.000000  1.000000 )  


     PseudoPot. # 1 for C  read from file:
     /home/ciga/builds/pseudo_potentials/C.upf
     MD5 check sum: d80ec9912146af6c4c1760317d1f95e9
     Pseudo is Norm-conserving + core correction, Zval =  4.0
     Generated using ONCVPSP code by D. R. Hamann
     Using radial grid of 1248 points,  4 beta functions with: 
                l(1) =   0
                l(2) =   0
                l(3) =   1
                l(4) =   1

     PseudoPot. # 2 for H  read from file:
     /home/ciga/builds/pseudo_potentials/H.upf
     MD5 check sum: 418cee52d0c413ae40802e6cc37ab9e3
     Pseudo is Norm-conserving, Zval =  1.0
     Generated using ONCVPSP code by D. R. Hamann
     Using radial grid of 1166 points,  3 beta functions with: 
                l(1) =   0
                l(2) =   0
                l(3) =   1

     atomic species   valence    mass     pseudopotential
        C              4.00    12.01070     C ( 1.00)
        H              1.00     1.00794     H ( 1.00)

     No symmetry found



   Cartesian axes

     site n.     atom                  positions (alat units)
         1           C   tau(   1) = (  -0.2144228  -0.0000037  -0.0226647  )
         2           C   tau(   2) = (  -0.1492605  -0.1139793  -0.0094975  )
         3           C   tau(   3) = (  -0.0199434  -0.1136681   0.0165275  )
         4           C   tau(   4) = (   0.0467953   0.0000038   0.0299330  )
         5           C   tau(   5) = (  -0.0199488   0.1136718   0.0165239  )
         6           C   tau(   6) = (  -0.1492662   0.1139754  -0.0095007  )
         7           H   tau(   7) = (  -0.3154869  -0.0000065  -0.0425490  )
         8           H   tau(   8) = (  -0.1993916  -0.2035092  -0.0190116  )
         9           H   tau(   9) = (   0.0301943  -0.2032326   0.0272614  )
        10           H   tau(  10) = (   0.0301844   0.2032390   0.0272548  )
        11           H   tau(  11) = (  -0.1994030   0.2035016  -0.0190178  )
        12           C   tau(  12) = (   0.2659513  -0.0000036  -0.0675374  )
        13           C   tau(  13) = (   0.1873634   0.0000047   0.0545913  )
        14           H   tau(  14) = (   0.2449671  -0.0837154  -0.1251783  )
        15           H   tau(  15) = (   0.2450090   0.0837288  -0.1251636  )
        16           H   tau(  16) = (   0.3675903  -0.0000310  -0.0464371  )
        17           H   tau(  17) = (   0.2123467  -0.0833402   0.1115232  )
        18           H   tau(  18) = (   0.2123500   0.0833537   0.1115156  )

     number of k points=     1
                       cart. coord. in units 2pi/alat
        k(    1) = (   0.0000000   0.0000000   0.0000000), wk =   2.0000000

     Dense  grid:   423277 G-vectors     FFT dimensions: ( 120, 120, 120)

     Estimated max dynamical RAM per process >     122.00 MB

     Estimated total dynamical RAM >     488.00 MB

     Initial potential from superposition of free atoms

     starting charge   41.99955, renormalised to   42.00000

     negative rho (up, down):  2.562E-05 0.000E+00
     Starting wfcs are   42 randomized atomic wfcs

     total cpu time spent up to now is        2.4 secs

     Self-consistent Calculation

     iteration #  1     ecut=    85.00 Ry     beta= 0.50
     Davidson diagonalization with overlap
     ethr =  1.00E-02,  avg # of iterations =  2.0

     negative rho (up, down):  3.108E-06 0.000E+00

     total cpu time spent up to now is        5.6 secs

     total energy              =    -107.85894122 Ry
     estimated scf accuracy    <       2.05063464 Ry

     iteration #  2     ecut=    85.00 Ry     beta= 0.50
     Davidson diagonalization with overlap
     ethr =  4.88E-03,  avg # of iterations =  2.0

     negative rho (up, down):  7.143E-07 0.000E+00

     total cpu time spent up to now is        8.6 secs

     total energy              =    -108.15611629 Ry
     estimated scf accuracy    <       0.15390806 Ry

     iteration #  3     ecut=    85.00 Ry     beta= 0.50
     Davidson diagonalization with overlap
     ethr =  3.66E-04,  avg # of iterations =  2.0

     negative rho (up, down):  3.009E-08 0.000E+00

     total cpu time spent up to now is       11.0 secs

     total energy              =    -108.15478471 Ry
     estimated scf accuracy    <       0.02760413 Ry

     iteration #  4     ecut=    85.00 Ry     beta= 0.50
     Davidson diagonalization with overlap
     ethr =  6.57E-05,  avg # of iterations =  2.0

     total cpu time spent up to now is       13.9 secs

     total energy              =    -108.15826826 Ry
     estimated scf accuracy    <       0.00188103 Ry

     iteration #  5     ecut=    85.00 Ry     beta= 0.50
     Davidson diagonalization with overlap
     ethr =  4.48E-06,  avg # of iterations =  2.0

     total cpu time spent up to now is       17.0 secs

     total energy              =    -108.15892248 Ry
     estimated scf accuracy    <       0.00050374 Ry

     iteration #  6     ecut=    85.00 Ry     beta= 0.50
     Davidson diagonalization with overlap
     ethr =  1.20E-06,  avg # of iterations =  2.0

     total cpu time spent up to now is       20.0 secs

     total energy              =    -108.15902077 Ry
     estimated scf accuracy    <       0.00001206 Ry

     iteration #  7     ecut=    85.00 Ry     beta= 0.50
     Davidson diagonalization with overlap
     ethr =  2.87E-08,  avg # of iterations =  4.0

     total cpu time spent up to now is       24.1 secs

     total energy              =    -108.15902697 Ry
     estimated scf accuracy    <       0.00001226 Ry

     iteration #  8     ecut=    85.00 Ry     beta= 0.50
     Davidson diagonalization with overlap
     ethr =  2.87E-08,  avg # of iterations =  4.0

     total cpu time spent up to now is       27.2 secs

     total energy              =    -108.15903077 Ry
     estimated scf accuracy    <       0.00000206 Ry

     iteration #  9     ecut=    85.00 Ry     beta= 0.50
     Davidson diagonalization with overlap
     ethr =  4.90E-09,  avg # of iterations =  4.0

     total cpu time spent up to now is       30.2 secs

     total energy              =    -108.15903108 Ry
     estimated scf accuracy    <       0.00000011 Ry

     iteration # 10     ecut=    85.00 Ry     beta= 0.50
     Davidson diagonalization with overlap
     ethr =  2.67E-10,  avg # of iterations =  5.0

     total cpu time spent up to now is       33.8 secs

     total energy              =    -108.15903113 Ry
     estimated scf accuracy    <       0.00000010 Ry

     iteration # 11     ecut=    85.00 Ry     beta= 0.50
     Davidson diagonalization with overlap
     ethr =  2.41E-10,  avg # of iterations =  4.0

     total cpu time spent up to now is       36.8 secs

     total energy              =    -108.15903114 Ry
     estimated scf accuracy    <          4.4E-09 Ry

     iteration # 12     ecut=    85.00 Ry     beta= 0.50
     Davidson diagonalization with overlap
     ethr =  1.04E-11,  avg # of iterations =  3.0

     total cpu time spent up to now is       40.1 secs

     total energy              =    -108.15903114 Ry
     estimated scf accuracy    <          9.8E-10 Ry

     iteration # 13     ecut=    85.00 Ry     beta= 0.50
     Davidson diagonalization with overlap
     ethr =  2.34E-12,  avg # of iterations =  5.0

     total cpu time spent up to now is       43.5 secs

     total energy              =    -108.15903114 Ry
     estimated scf accuracy    <          1.2E-10 Ry

     iteration # 14     ecut=    85.00 Ry     beta= 0.50
     Davidson diagonalization with overlap
     ethr =  2.91E-13,  avg # of iterations =  4.0

     total cpu time spent up to now is       46.5 secs

     total energy              =    -108.15903114 Ry
     estimated scf accuracy    <          7.9E-11 Ry

     iteration # 15     ecut=    85.00 Ry     beta= 0.50
     Davidson diagonalization with overlap
     ethr =  1.89E-13,  avg # of iterations =  5.0

     total cpu time spent up to now is       49.9 secs

     total energy              =    -108.15903114 Ry
     estimated scf accuracy    <          3.4E-11 Ry

     iteration # 16     ecut=    85.00 Ry     beta= 0.50
     Davidson diagonalization with overlap
     ethr =  1.00E-13,  avg # of iterations =  5.0

     total cpu time spent up to now is       52.7 secs

     total energy              =    -108.15903114 Ry
     estimated scf accuracy    <          6.6E-12 Ry

     iteration # 17     ecut=    85.00 Ry     beta= 0.50
     Davidson diagonalization with overlap
     ethr =  1.00E-13,  avg # of iterations =  2.0

     total cpu time spent up to now is       55.2 secs

     total energy              =    -108.15903114 Ry
     estimated scf accuracy    <          3.3E-12 Ry

     iteration # 18     ecut=    85.00 Ry     beta= 0.50
     Davidson diagonalization with overlap
     ethr =  1.00E-13,  avg # of iterations =  1.0

     total cpu time spent up to now is       57.5 secs

     total energy              =    -108.15903114 Ry
     estimated scf accuracy    <          1.2E-12 Ry

     iteration # 19     ecut=    85.00 Ry     beta= 0.50
     Davidson diagonalization with overlap
     ethr =  1.00E-13,  avg # of iterations =  1.0

     total cpu time spent up to now is       59.7 secs

     End of self-consistent calculation

          k = 0.0000 0.0000 0.0000 ( 53024 PWs)   bands (ev):

   -20.5024 -18.7098 -17.5862 -17.0438 -14.7875 -14.0833 -13.3528 -11.7407
   -10.6447 -10.3564  -9.6866  -9.4773  -9.2780  -8.8924  -8.2054  -7.8487
    -7.6447  -7.1618  -7.1512  -5.4883  -5.2675

     highest occupied level (ev):    -5.2675

!    total energy              =    -108.15903114 Ry
     estimated scf accuracy    <          2.3E-13 Ry

     The total energy is the sum of the following terms:
     one-electron contribution =    -386.12807377 Ry
     hartree contribution      =     199.05430132 Ry
     xc contribution           =     -41.29466638 Ry
     ewald contribution        =     120.20940768 Ry

     convergence has been achieved in  19 iterations

     Forces acting on atoms (cartesian axes, Ry/au):

     atom    1 type  1   force =    -0.00108868   -0.00000247   -0.00042657
     atom    2 type  1   force =    -0.00084491   -0.00116067    0.00016561
     atom    3 type  1   force =     0.00089479   -0.00115580    0.00024176
     atom    4 type  1   force =    -0.00020052   -0.00000185   -0.00018463
     atom    5 type  1   force =     0.00089510    0.00115657    0.00024282
     atom    6 type  1   force =    -0.00084678    0.00116029    0.00016408
     atom    7 type  2   force =     0.00106985    0.00000042   -0.00034047
     atom    8 type  2   force =     0.00080080    0.00140057    0.00011388
     atom    9 type  2   force =    -0.00079429    0.00146444   -0.00015391
     atom   10 type  2   force =    -0.00079361   -0.00146288   -0.00015372
     atom   11 type  2   force =     0.00080300   -0.00139791    0.00011441
     atom   12 type  1   force =    -0.00002707    0.00000008   -0.00083123
     atom   13 type  1   force =     0.00075047   -0.00000245    0.00131072
     atom   14 type  2   force =     0.00031930    0.00095035    0.00061340
     atom   15 type  2   force =     0.00031593   -0.00095160    0.00061088
     atom   16 type  2   force =    -0.00081997    0.00000281   -0.00001389
     atom   17 type  2   force =    -0.00021658    0.00102360   -0.00073658
     atom   18 type  2   force =    -0.00021684   -0.00102350   -0.00073657

     Total force =     0.005637     Total SCF correction =     0.000000

     Writing output data file ./Ethybenzene.save/

     init_run     :      2.31s CPU      2.40s WALL (       1 calls)
     electrons    :     56.42s CPU     57.24s WALL (       1 calls)
     forces       :      1.48s CPU      1.52s WALL (       1 calls)

     Called by init_run:
     wfcinit      :      1.35s CPU      1.36s WALL (       1 calls)
     potinit      :      0.59s CPU      0.63s WALL (       1 calls)
     hinit0       :      0.22s CPU      0.24s WALL (       1 calls)

     Called by electrons:
     c_bands      :     39.98s CPU     40.20s WALL (      19 calls)
     sum_band     :      6.38s CPU      6.44s WALL (      19 calls)
     v_of_rho     :      7.86s CPU      8.38s WALL (      20 calls)
     mix_rho      :      2.37s CPU      2.41s WALL (      19 calls)

     Called by c_bands:
     init_us_2    :      0.48s CPU      0.49s WALL (      39 calls)
     regterg      :     39.35s CPU     39.57s WALL (      19 calls)

     Called by *egterg:
     rdiaghg      :      0.10s CPU      0.10s WALL (      78 calls)
     h_psi        :     32.71s CPU     32.90s WALL (      79 calls)
     g_psi        :      0.08s CPU      0.08s WALL (      59 calls)

     Called by h_psi:
     h_psi:calbec :      5.32s CPU      5.34s WALL (      79 calls)
     vloc_psi     :     22.78s CPU     22.94s WALL (      79 calls)
     add_vuspsi   :      4.44s CPU      4.45s WALL (      79 calls)

     General routines
     calbec       :      5.71s CPU      5.73s WALL (      83 calls)
     fft          :      5.37s CPU      5.49s WALL (     168 calls)
     ffts         :      0.58s CPU      0.58s WALL (      19 calls)
     fftw         :     21.62s CPU     21.77s WALL (    1445 calls)

     Parallel routines

     PWSCF        :   1m 0.30s CPU   1m 1.27s WALL


   This run was terminated on:   0:46: 6  24May2021            

=------------------------------------------------------------------------------=
   JOB DONE.
=------------------------------------------------------------------------------=
