
     Program PWSCF v.6.7GPU starts on 24May2021 at  0:47:11 

     This program is part of the open-source Quantum ESPRESSO suite
     for quantum simulation of materials; please cite
         "P. Giannozzi et al., J. Phys.:Condens. Matter 21 395502 (2009);
         "P. Giannozzi et al., J. Phys.:Condens. Matter 29 465901 (2017);
         "P. Giannozzi et al., J. Chem. Phys. 152 154105 (2020);
          URL http://www.quantum-espresso.org", 
     in publications or presentations arising from this work. More details at
     http://www.quantum-espresso.org/quote

     Parallel version (MPI), running on     4 processors

     MPI processes distributed on     1 nodes
     R & G space division:  proc/nbgrp/npool/nimage =       4
     Waiting for input...
     Reading input from standard input
     Message from routine read_cards :
     DEPRECATED: no units specified in CELL_PARAMETERS card

     Current dimensions of program PWSCF are:
     Max number of different atomic species (ntypx) = 10
     Max number of k-points (npk) =  40000
     Max angular momentum in pseudopotentials (lmaxx) =  3

     gamma-point specific algorithms are used

     Subspace diagonalization in iterative solution of the eigenvalue problem:
     one sub-group per band group will be used
     scalapack distributed-memory algorithm (size of sub-group:  2*  2 procs)


     Parallelization info
     --------------------
     sticks:   dense  smooth     PW     G-vecs:    dense   smooth      PW
     Min        3022    3022    754               250214   250214   31205
     Max        3024    3024    755               250219   250219   31206
     Sum       12093   12093   3017              1000865  1000865  124823

     Using Slab Decomposition



     bravais-lattice index     =            0
     lattice parameter (alat)  =      20.0000  a.u.
     unit-cell volume          =    8000.0000 (a.u.)^3
     number of atoms/cell      =           18
     number of atomic types    =            2
     number of electrons       =        42.00
     number of Kohn-Sham states=           21
     kinetic-energy cutoff     =      95.0000  Ry
     charge density cutoff     =     380.0000  Ry
     scf convergence threshold =      1.0E-12
     mixing beta               =       0.5000
     number of iterations used =            8  plain     mixing
     Exchange-correlation= PBE
                           (   1   4   3   4   0   0   0)

     celldm(1)=  20.000000  celldm(2)=   0.000000  celldm(3)=   0.000000
     celldm(4)=   0.000000  celldm(5)=   0.000000  celldm(6)=   0.000000

     crystal axes: (cart. coord. in units of alat)
               a(1) = (   1.000000   0.000000   0.000000 )  
               a(2) = (   0.000000   1.000000   0.000000 )  
               a(3) = (   0.000000   0.000000   1.000000 )  

     reciprocal axes: (cart. coord. in units 2 pi/alat)
               b(1) = (  1.000000  0.000000  0.000000 )  
               b(2) = (  0.000000  1.000000  0.000000 )  
               b(3) = (  0.000000  0.000000  1.000000 )  


     PseudoPot. # 1 for C  read from file:
     /home/ciga/builds/pseudo_potentials/C.upf
     MD5 check sum: d80ec9912146af6c4c1760317d1f95e9
     Pseudo is Norm-conserving + core correction, Zval =  4.0
     Generated using ONCVPSP code by D. R. Hamann
     Using radial grid of 1248 points,  4 beta functions with: 
                l(1) =   0
                l(2) =   0
                l(3) =   1
                l(4) =   1

     PseudoPot. # 2 for H  read from file:
     /home/ciga/builds/pseudo_potentials/H.upf
     MD5 check sum: 418cee52d0c413ae40802e6cc37ab9e3
     Pseudo is Norm-conserving, Zval =  1.0
     Generated using ONCVPSP code by D. R. Hamann
     Using radial grid of 1166 points,  3 beta functions with: 
                l(1) =   0
                l(2) =   0
                l(3) =   1

     atomic species   valence    mass     pseudopotential
        C              4.00    12.01070     C ( 1.00)
        H              1.00     1.00794     H ( 1.00)

     No symmetry found



   Cartesian axes

     site n.     atom                  positions (alat units)
         1           C   tau(   1) = (  -0.2144228  -0.0000037  -0.0226647  )
         2           C   tau(   2) = (  -0.1492605  -0.1139793  -0.0094975  )
         3           C   tau(   3) = (  -0.0199434  -0.1136681   0.0165275  )
         4           C   tau(   4) = (   0.0467953   0.0000038   0.0299330  )
         5           C   tau(   5) = (  -0.0199488   0.1136718   0.0165239  )
         6           C   tau(   6) = (  -0.1492662   0.1139754  -0.0095007  )
         7           H   tau(   7) = (  -0.3154869  -0.0000065  -0.0425490  )
         8           H   tau(   8) = (  -0.1993916  -0.2035092  -0.0190116  )
         9           H   tau(   9) = (   0.0301943  -0.2032326   0.0272614  )
        10           H   tau(  10) = (   0.0301844   0.2032390   0.0272548  )
        11           H   tau(  11) = (  -0.1994030   0.2035016  -0.0190178  )
        12           C   tau(  12) = (   0.2659513  -0.0000036  -0.0675374  )
        13           C   tau(  13) = (   0.1873634   0.0000047   0.0545913  )
        14           H   tau(  14) = (   0.2449671  -0.0837154  -0.1251783  )
        15           H   tau(  15) = (   0.2450090   0.0837288  -0.1251636  )
        16           H   tau(  16) = (   0.3675903  -0.0000310  -0.0464371  )
        17           H   tau(  17) = (   0.2123467  -0.0833402   0.1115232  )
        18           H   tau(  18) = (   0.2123500   0.0833537   0.1115156  )

     number of k points=     1
                       cart. coord. in units 2pi/alat
        k(    1) = (   0.0000000   0.0000000   0.0000000), wk =   2.0000000

     Dense  grid:   500433 G-vectors     FFT dimensions: ( 125, 125, 125)

     Estimated max dynamical RAM per process >     143.36 MB

     Estimated total dynamical RAM >     573.43 MB

     Initial potential from superposition of free atoms

     starting charge   41.99955, renormalised to   42.00000

     negative rho (up, down):  2.522E-06 0.000E+00
     Starting wfcs are   42 randomized atomic wfcs

     total cpu time spent up to now is        2.9 secs

     Self-consistent Calculation

     iteration #  1     ecut=    95.00 Ry     beta= 0.50
     Davidson diagonalization with overlap
     ethr =  1.00E-02,  avg # of iterations =  2.0

     total cpu time spent up to now is        6.7 secs

     total energy              =    -107.85925817 Ry
     estimated scf accuracy    <       2.05000944 Ry

     iteration #  2     ecut=    95.00 Ry     beta= 0.50
     Davidson diagonalization with overlap
     ethr =  4.88E-03,  avg # of iterations =  2.0

     total cpu time spent up to now is       10.2 secs

     total energy              =    -108.15624993 Ry
     estimated scf accuracy    <       0.15390155 Ry

     iteration #  3     ecut=    95.00 Ry     beta= 0.50
     Davidson diagonalization with overlap
     ethr =  3.66E-04,  avg # of iterations =  2.0

     total cpu time spent up to now is       13.1 secs

     total energy              =    -108.15491886 Ry
     estimated scf accuracy    <       0.02761893 Ry

     iteration #  4     ecut=    95.00 Ry     beta= 0.50
     Davidson diagonalization with overlap
     ethr =  6.58E-05,  avg # of iterations =  2.0

     total cpu time spent up to now is       16.5 secs

     total energy              =    -108.15839514 Ry
     estimated scf accuracy    <       0.00187736 Ry

     iteration #  5     ecut=    95.00 Ry     beta= 0.50
     Davidson diagonalization with overlap
     ethr =  4.47E-06,  avg # of iterations =  2.0

     total cpu time spent up to now is       20.3 secs

     total energy              =    -108.15904681 Ry
     estimated scf accuracy    <       0.00049394 Ry

     iteration #  6     ecut=    95.00 Ry     beta= 0.50
     Davidson diagonalization with overlap
     ethr =  1.18E-06,  avg # of iterations =  2.0

     total cpu time spent up to now is       23.8 secs

     total energy              =    -108.15914589 Ry
     estimated scf accuracy    <       0.00001129 Ry

     iteration #  7     ecut=    95.00 Ry     beta= 0.50
     Davidson diagonalization with overlap
     ethr =  2.69E-08,  avg # of iterations =  6.0

     total cpu time spent up to now is       28.9 secs

     total energy              =    -108.15915160 Ry
     estimated scf accuracy    <       0.00001171 Ry

     iteration #  8     ecut=    95.00 Ry     beta= 0.50
     Davidson diagonalization with overlap
     ethr =  2.69E-08,  avg # of iterations =  4.0

     total cpu time spent up to now is       32.6 secs

     total energy              =    -108.15915530 Ry
     estimated scf accuracy    <       0.00000258 Ry

     iteration #  9     ecut=    95.00 Ry     beta= 0.50
     Davidson diagonalization with overlap
     ethr =  6.15E-09,  avg # of iterations =  4.0

     total cpu time spent up to now is       36.1 secs

     total energy              =    -108.15915569 Ry
     estimated scf accuracy    <       0.00000013 Ry

     iteration # 10     ecut=    95.00 Ry     beta= 0.50
     Davidson diagonalization with overlap
     ethr =  3.02E-10,  avg # of iterations =  3.0

     total cpu time spent up to now is       40.4 secs

     total energy              =    -108.15915573 Ry
     estimated scf accuracy    <       0.00000011 Ry

     iteration # 11     ecut=    95.00 Ry     beta= 0.50
     Davidson diagonalization with overlap
     ethr =  2.66E-10,  avg # of iterations =  4.0

     total cpu time spent up to now is       43.9 secs

     total energy              =    -108.15915574 Ry
     estimated scf accuracy    <          5.2E-09 Ry

     iteration # 12     ecut=    95.00 Ry     beta= 0.50
     Davidson diagonalization with overlap
     ethr =  1.25E-11,  avg # of iterations =  3.0

     total cpu time spent up to now is       47.8 secs

     total energy              =    -108.15915574 Ry
     estimated scf accuracy    <          1.1E-09 Ry

     iteration # 13     ecut=    95.00 Ry     beta= 0.50
     Davidson diagonalization with overlap
     ethr =  2.52E-12,  avg # of iterations =  5.0

     total cpu time spent up to now is       52.2 secs

     total energy              =    -108.15915574 Ry
     estimated scf accuracy    <          4.9E-10 Ry

     iteration # 14     ecut=    95.00 Ry     beta= 0.50
     Davidson diagonalization with overlap
     ethr =  1.17E-12,  avg # of iterations =  2.0

     total cpu time spent up to now is       55.2 secs

     total energy              =    -108.15915574 Ry
     estimated scf accuracy    <          1.0E-10 Ry

     iteration # 15     ecut=    95.00 Ry     beta= 0.50
     Davidson diagonalization with overlap
     ethr =  2.38E-13,  avg # of iterations =  5.0

     total cpu time spent up to now is       59.4 secs

     total energy              =    -108.15915574 Ry
     estimated scf accuracy    <          6.0E-11 Ry

     iteration # 16     ecut=    95.00 Ry     beta= 0.50
     Davidson diagonalization with overlap
     ethr =  1.42E-13,  avg # of iterations =  4.0

     total cpu time spent up to now is       62.5 secs

     total energy              =    -108.15915574 Ry
     estimated scf accuracy    <          3.1E-12 Ry

     iteration # 17     ecut=    95.00 Ry     beta= 0.50
     Davidson diagonalization with overlap
     ethr =  1.00E-13,  avg # of iterations =  4.0

     total cpu time spent up to now is       65.7 secs

     total energy              =    -108.15915574 Ry
     estimated scf accuracy    <          6.6E-12 Ry

     iteration # 18     ecut=    95.00 Ry     beta= 0.50
     Davidson diagonalization with overlap
     ethr =  1.00E-13,  avg # of iterations =  1.0

     total cpu time spent up to now is       68.5 secs

     total energy              =    -108.15915574 Ry
     estimated scf accuracy    <          2.2E-12 Ry

     iteration # 19     ecut=    95.00 Ry     beta= 0.50
     Davidson diagonalization with overlap
     ethr =  1.00E-13,  avg # of iterations =  1.0

     total cpu time spent up to now is       71.1 secs

     End of self-consistent calculation

          k = 0.0000 0.0000 0.0000 ( 62412 PWs)   bands (ev):

   -20.5023 -18.7098 -17.5862 -17.0437 -14.7875 -14.0833 -13.3528 -11.7406
   -10.6446 -10.3564  -9.6866  -9.4773  -9.2780  -8.8924  -8.2054  -7.8486
    -7.6447  -7.1618  -7.1512  -5.4883  -5.2675

     highest occupied level (ev):    -5.2675

!    total energy              =    -108.15915574 Ry
     estimated scf accuracy    <          4.5E-13 Ry

     The total energy is the sum of the following terms:
     one-electron contribution =    -386.12828152 Ry
     hartree contribution      =     199.05445387 Ry
     xc contribution           =     -41.29473577 Ry
     ewald contribution        =     120.20940768 Ry

     convergence has been achieved in  19 iterations

     Forces acting on atoms (cartesian axes, Ry/au):

     atom    1 type  1   force =    -0.00108662   -0.00000240   -0.00042628
     atom    2 type  1   force =    -0.00084430   -0.00115787    0.00016608
     atom    3 type  1   force =     0.00089283   -0.00115270    0.00024096
     atom    4 type  1   force =    -0.00020777   -0.00000183   -0.00018522
     atom    5 type  1   force =     0.00089319    0.00115349    0.00024204
     atom    6 type  1   force =    -0.00084614    0.00115748    0.00016454
     atom    7 type  2   force =     0.00107589    0.00000041   -0.00033923
     atom    8 type  2   force =     0.00080378    0.00140570    0.00011431
     atom    9 type  2   force =    -0.00079704    0.00146927   -0.00015433
     atom   10 type  2   force =    -0.00079636   -0.00146774   -0.00015414
     atom   11 type  2   force =     0.00080599   -0.00140308    0.00011484
     atom   12 type  1   force =    -0.00002232    0.00000007   -0.00083781
     atom   13 type  1   force =     0.00075288   -0.00000241    0.00131822
     atom   14 type  2   force =     0.00032079    0.00095510    0.00061662
     atom   15 type  2   force =     0.00031741   -0.00095638    0.00061409
     atom   16 type  2   force =    -0.00082585    0.00000280   -0.00001518
     atom   17 type  2   force =    -0.00021803    0.00102819   -0.00073977
     atom   18 type  2   force =    -0.00021830   -0.00102811   -0.00073976

     Total force =     0.005650     Total SCF correction =     0.000001

     Writing output data file ./Ethybenzene.save/

     init_run     :      2.71s CPU      2.86s WALL (       1 calls)
     electrons    :     67.30s CPU     68.23s WALL (       1 calls)
     forces       :      1.75s CPU      1.80s WALL (       1 calls)

     Called by init_run:
     wfcinit      :      1.62s CPU      1.66s WALL (       1 calls)
     potinit      :      0.63s CPU      0.72s WALL (       1 calls)
     hinit0       :      0.23s CPU      0.25s WALL (       1 calls)

     Called by electrons:
     c_bands      :     48.22s CPU     48.52s WALL (      19 calls)
     sum_band     :      7.43s CPU      7.49s WALL (      19 calls)
     v_of_rho     :      9.05s CPU      9.64s WALL (      20 calls)
     mix_rho      :      2.78s CPU      2.80s WALL (      19 calls)

     Called by c_bands:
     init_us_2    :      0.57s CPU      0.59s WALL (      39 calls)
     regterg      :     47.48s CPU     47.77s WALL (      19 calls)

     Called by *egterg:
     rdiaghg      :      0.09s CPU      0.10s WALL (      77 calls)
     h_psi        :     39.72s CPU     39.98s WALL (      78 calls)
     g_psi        :      0.09s CPU      0.10s WALL (      58 calls)

     Called by h_psi:
     h_psi:calbec :      6.26s CPU      6.27s WALL (      78 calls)
     vloc_psi     :     28.03s CPU     28.25s WALL (      78 calls)
     add_vuspsi   :      5.23s CPU      5.25s WALL (      78 calls)

     General routines
     calbec       :      6.72s CPU      6.74s WALL (      82 calls)
     fft          :      6.18s CPU      6.31s WALL (     168 calls)
     ffts         :      0.69s CPU      0.70s WALL (      19 calls)
     fftw         :     26.80s CPU     27.01s WALL (    1441 calls)

     Parallel routines

     PWSCF        :   1m11.84s CPU   1m13.02s WALL


   This run was terminated on:   0:48:24  24May2021            

=------------------------------------------------------------------------------=
   JOB DONE.
=------------------------------------------------------------------------------=
