
     Program PWSCF v.6.7GPU starts on 24May2021 at  0:39:28 

     This program is part of the open-source Quantum ESPRESSO suite
     for quantum simulation of materials; please cite
         "P. Giannozzi et al., J. Phys.:Condens. Matter 21 395502 (2009);
         "P. Giannozzi et al., J. Phys.:Condens. Matter 29 465901 (2017);
         "P. Giannozzi et al., J. Chem. Phys. 152 154105 (2020);
          URL http://www.quantum-espresso.org", 
     in publications or presentations arising from this work. More details at
     http://www.quantum-espresso.org/quote

     Parallel version (MPI), running on     4 processors

     MPI processes distributed on     1 nodes
     R & G space division:  proc/nbgrp/npool/nimage =       4
     Waiting for input...
     Reading input from standard input
     Message from routine read_cards :
     DEPRECATED: no units specified in CELL_PARAMETERS card

     Current dimensions of program PWSCF are:
     Max number of different atomic species (ntypx) = 10
     Max number of k-points (npk) =  40000
     Max angular momentum in pseudopotentials (lmaxx) =  3

     gamma-point specific algorithms are used

     Subspace diagonalization in iterative solution of the eigenvalue problem:
     one sub-group per band group will be used
     scalapack distributed-memory algorithm (size of sub-group:  2*  2 procs)


     Parallelization info
     --------------------
     sticks:   dense  smooth     PW     G-vecs:    dense   smooth      PW
     Min        1115    1115    276                55933    55933    7000
     Max        1118    1118    278                55934    55934    7006
     Sum        4469    4469   1109               223735   223735   28017

     Using Slab Decomposition



     bravais-lattice index     =            0
     lattice parameter (alat)  =      20.0000  a.u.
     unit-cell volume          =    8000.0000 (a.u.)^3
     number of atoms/cell      =           18
     number of atomic types    =            2
     number of electrons       =        42.00
     number of Kohn-Sham states=           21
     kinetic-energy cutoff     =      35.0000  Ry
     charge density cutoff     =     140.0000  Ry
     scf convergence threshold =      1.0E-12
     mixing beta               =       0.5000
     number of iterations used =            8  plain     mixing
     Exchange-correlation= PBE
                           (   1   4   3   4   0   0   0)

     celldm(1)=  20.000000  celldm(2)=   0.000000  celldm(3)=   0.000000
     celldm(4)=   0.000000  celldm(5)=   0.000000  celldm(6)=   0.000000

     crystal axes: (cart. coord. in units of alat)
               a(1) = (   1.000000   0.000000   0.000000 )  
               a(2) = (   0.000000   1.000000   0.000000 )  
               a(3) = (   0.000000   0.000000   1.000000 )  

     reciprocal axes: (cart. coord. in units 2 pi/alat)
               b(1) = (  1.000000  0.000000  0.000000 )  
               b(2) = (  0.000000  1.000000  0.000000 )  
               b(3) = (  0.000000  0.000000  1.000000 )  


     PseudoPot. # 1 for C  read from file:
     /home/ciga/builds/pseudo_potentials/C.upf
     MD5 check sum: d80ec9912146af6c4c1760317d1f95e9
     Pseudo is Norm-conserving + core correction, Zval =  4.0
     Generated using ONCVPSP code by D. R. Hamann
     Using radial grid of 1248 points,  4 beta functions with: 
                l(1) =   0
                l(2) =   0
                l(3) =   1
                l(4) =   1

     PseudoPot. # 2 for H  read from file:
     /home/ciga/builds/pseudo_potentials/H.upf
     MD5 check sum: 418cee52d0c413ae40802e6cc37ab9e3
     Pseudo is Norm-conserving, Zval =  1.0
     Generated using ONCVPSP code by D. R. Hamann
     Using radial grid of 1166 points,  3 beta functions with: 
                l(1) =   0
                l(2) =   0
                l(3) =   1

     atomic species   valence    mass     pseudopotential
        C              4.00    12.01070     C ( 1.00)
        H              1.00     1.00794     H ( 1.00)

     No symmetry found



   Cartesian axes

     site n.     atom                  positions (alat units)
         1           C   tau(   1) = (  -0.2144228  -0.0000037  -0.0226647  )
         2           C   tau(   2) = (  -0.1492605  -0.1139793  -0.0094975  )
         3           C   tau(   3) = (  -0.0199434  -0.1136681   0.0165275  )
         4           C   tau(   4) = (   0.0467953   0.0000038   0.0299330  )
         5           C   tau(   5) = (  -0.0199488   0.1136718   0.0165239  )
         6           C   tau(   6) = (  -0.1492662   0.1139754  -0.0095007  )
         7           H   tau(   7) = (  -0.3154869  -0.0000065  -0.0425490  )
         8           H   tau(   8) = (  -0.1993916  -0.2035092  -0.0190116  )
         9           H   tau(   9) = (   0.0301943  -0.2032326   0.0272614  )
        10           H   tau(  10) = (   0.0301844   0.2032390   0.0272548  )
        11           H   tau(  11) = (  -0.1994030   0.2035016  -0.0190178  )
        12           C   tau(  12) = (   0.2659513  -0.0000036  -0.0675374  )
        13           C   tau(  13) = (   0.1873634   0.0000047   0.0545913  )
        14           H   tau(  14) = (   0.2449671  -0.0837154  -0.1251783  )
        15           H   tau(  15) = (   0.2450090   0.0837288  -0.1251636  )
        16           H   tau(  16) = (   0.3675903  -0.0000310  -0.0464371  )
        17           H   tau(  17) = (   0.2123467  -0.0833402   0.1115232  )
        18           H   tau(  18) = (   0.2123500   0.0833537   0.1115156  )

     number of k points=     1
                       cart. coord. in units 2pi/alat
        k(    1) = (   0.0000000   0.0000000   0.0000000), wk =   2.0000000

     Dense  grid:   111868 G-vectors     FFT dimensions: (  75,  75,  75)

     Estimated max dynamical RAM per process >      32.09 MB

     Estimated total dynamical RAM >     128.35 MB

     Initial potential from superposition of free atoms

     starting charge   41.99955, renormalised to   42.00000

     negative rho (up, down):  3.557E-03 0.000E+00
     Starting wfcs are   42 randomized atomic wfcs

     total cpu time spent up to now is        0.7 secs

     Self-consistent Calculation

     iteration #  1     ecut=    35.00 Ry     beta= 0.50
     Davidson diagonalization with overlap
     ethr =  1.00E-02,  avg # of iterations =  2.0

     negative rho (up, down):  1.640E-03 0.000E+00

     total cpu time spent up to now is        1.4 secs

     total energy              =    -107.28982930 Ry
     estimated scf accuracy    <       1.80752895 Ry

     iteration #  2     ecut=    35.00 Ry     beta= 0.50
     Davidson diagonalization with overlap
     ethr =  4.30E-03,  avg # of iterations =  2.0

     negative rho (up, down):  6.522E-04 0.000E+00

     total cpu time spent up to now is        2.0 secs

     total energy              =    -107.52646842 Ry
     estimated scf accuracy    <       0.14807073 Ry

     iteration #  3     ecut=    35.00 Ry     beta= 0.50
     Davidson diagonalization with overlap
     ethr =  3.53E-04,  avg # of iterations =  2.0

     negative rho (up, down):  3.631E-05 0.000E+00

     total cpu time spent up to now is        2.5 secs

     total energy              =    -107.52562345 Ry
     estimated scf accuracy    <       0.02524625 Ry

     iteration #  4     ecut=    35.00 Ry     beta= 0.50
     Davidson diagonalization with overlap
     ethr =  6.01E-05,  avg # of iterations =  2.0

     negative rho (up, down):  1.769E-06 0.000E+00

     total cpu time spent up to now is        3.2 secs

     total energy              =    -107.52867259 Ry
     estimated scf accuracy    <       0.00165054 Ry

     iteration #  5     ecut=    35.00 Ry     beta= 0.50
     Davidson diagonalization with overlap
     ethr =  3.93E-06,  avg # of iterations =  2.0

     negative rho (up, down):  1.042E-07 0.000E+00

     total cpu time spent up to now is        3.8 secs

     total energy              =    -107.52921539 Ry
     estimated scf accuracy    <       0.00031987 Ry

     iteration #  6     ecut=    35.00 Ry     beta= 0.50
     Davidson diagonalization with overlap
     ethr =  7.62E-07,  avg # of iterations =  2.0

     total cpu time spent up to now is        4.5 secs

     total energy              =    -107.52928329 Ry
     estimated scf accuracy    <       0.00000841 Ry

     iteration #  7     ecut=    35.00 Ry     beta= 0.50
     Davidson diagonalization with overlap
     ethr =  2.00E-08,  avg # of iterations =  5.0

     total cpu time spent up to now is        5.4 secs

     total energy              =    -107.52928612 Ry
     estimated scf accuracy    <       0.00000724 Ry

     iteration #  8     ecut=    35.00 Ry     beta= 0.50
     Davidson diagonalization with overlap
     ethr =  1.72E-08,  avg # of iterations =  4.0

     total cpu time spent up to now is        6.1 secs

     total energy              =    -107.52928846 Ry
     estimated scf accuracy    <       0.00000286 Ry

     iteration #  9     ecut=    35.00 Ry     beta= 0.50
     Davidson diagonalization with overlap
     ethr =  6.81E-09,  avg # of iterations =  4.0

     total cpu time spent up to now is        6.7 secs

     total energy              =    -107.52928886 Ry
     estimated scf accuracy    <       0.00000011 Ry

     iteration # 10     ecut=    35.00 Ry     beta= 0.50
     Davidson diagonalization with overlap
     ethr =  2.50E-10,  avg # of iterations =  3.0

     total cpu time spent up to now is        7.5 secs

     total energy              =    -107.52928889 Ry
     estimated scf accuracy    <       0.00000013 Ry

     iteration # 11     ecut=    35.00 Ry     beta= 0.50
     Davidson diagonalization with overlap
     ethr =  2.50E-10,  avg # of iterations =  2.0

     total cpu time spent up to now is        8.1 secs

     total energy              =    -107.52928892 Ry
     estimated scf accuracy    <          2.1E-09 Ry

     iteration # 12     ecut=    35.00 Ry     beta= 0.50
     Davidson diagonalization with overlap
     ethr =  5.05E-12,  avg # of iterations =  6.0

     total cpu time spent up to now is        8.9 secs

     total energy              =    -107.52928892 Ry
     estimated scf accuracy    <          6.2E-10 Ry

     iteration # 13     ecut=    35.00 Ry     beta= 0.50
     Davidson diagonalization with overlap
     ethr =  1.47E-12,  avg # of iterations =  5.0

     total cpu time spent up to now is        9.6 secs

     total energy              =    -107.52928892 Ry
     estimated scf accuracy    <          1.9E-10 Ry

     iteration # 14     ecut=    35.00 Ry     beta= 0.50
     Davidson diagonalization with overlap
     ethr =  4.54E-13,  avg # of iterations =  4.0

     total cpu time spent up to now is       10.2 secs

     total energy              =    -107.52928892 Ry
     estimated scf accuracy    <          2.8E-11 Ry

     iteration # 15     ecut=    35.00 Ry     beta= 0.50
     Davidson diagonalization with overlap
     ethr =  1.00E-13,  avg # of iterations =  5.0

     total cpu time spent up to now is       10.9 secs

     total energy              =    -107.52928892 Ry
     estimated scf accuracy    <          1.8E-11 Ry

     iteration # 16     ecut=    35.00 Ry     beta= 0.50
     Davidson diagonalization with overlap
     ethr =  1.00E-13,  avg # of iterations =  5.0

     total cpu time spent up to now is       11.5 secs

     total energy              =    -107.52928892 Ry
     estimated scf accuracy    <          6.3E-12 Ry

     iteration # 17     ecut=    35.00 Ry     beta= 0.50
     Davidson diagonalization with overlap
     ethr =  1.00E-13,  avg # of iterations =  1.0

     total cpu time spent up to now is       12.0 secs

     total energy              =    -107.52928892 Ry
     estimated scf accuracy    <          2.2E-12 Ry

     iteration # 18     ecut=    35.00 Ry     beta= 0.50
     Davidson diagonalization with overlap
     ethr =  1.00E-13,  avg # of iterations =  3.0

     total cpu time spent up to now is       12.5 secs

     End of self-consistent calculation

          k = 0.0000 0.0000 0.0000 ( 14009 PWs)   bands (ev):

   -20.6905 -18.8700 -17.7523 -17.1886 -14.8845 -14.1780 -13.4263 -11.7572
   -10.6320 -10.3890  -9.6856  -9.4587  -9.2604  -8.8825  -8.1849  -7.8423
    -7.6113  -7.1146  -7.1079  -5.4716  -5.2471

     highest occupied level (ev):    -5.2471

!    total energy              =    -107.52928892 Ry
     estimated scf accuracy    <          9.9E-13 Ry

     The total energy is the sum of the following terms:
     one-electron contribution =    -385.01675615 Ry
     hartree contribution      =     198.36706743 Ry
     xc contribution           =     -41.08900789 Ry
     ewald contribution        =     120.20940770 Ry

     convergence has been achieved in  18 iterations

     Forces acting on atoms (cartesian axes, Ry/au):

     atom    1 type  1   force =    -0.00090928   -0.00000225   -0.00073631
     atom    2 type  1   force =    -0.00104118   -0.00153205    0.00030083
     atom    3 type  1   force =    -0.00012377   -0.00198321   -0.00023424
     atom    4 type  1   force =    -0.01140356   -0.00000147   -0.00071853
     atom    5 type  1   force =    -0.00012318    0.00198363   -0.00023245
     atom    6 type  1   force =    -0.00104316    0.00153144    0.00029965
     atom    7 type  2   force =    -0.00481879    0.00000033   -0.00143360
     atom    8 type  2   force =    -0.00191869   -0.00363351   -0.00031990
     atom    9 type  2   force =     0.00190897   -0.00351313    0.00037875
     atom   10 type  2   force =     0.00190956    0.00351495    0.00037879
     atom   11 type  2   force =    -0.00191676    0.00363607   -0.00031955
     atom   12 type  1   force =     0.00835842   -0.00000088   -0.01300342
     atom   13 type  1   force =     0.00641998   -0.00000132    0.01567011
     atom   14 type  2   force =    -0.00032677   -0.00288512   -0.00217189
     atom   15 type  2   force =    -0.00032789    0.00288442   -0.00217381
     atom   16 type  2   force =     0.00362733    0.00000175    0.00054032
     atom   17 type  2   force =     0.00086439   -0.00262272    0.00188767
     atom   18 type  2   force =     0.00086440    0.00262304    0.00188757

     Total force =     0.028747     Total SCF correction =     0.000002

     Writing output data file ./Ethybenzene.save/

     init_run     :      0.55s CPU      0.59s WALL (       1 calls)
     electrons    :     11.66s CPU     11.89s WALL (       1 calls)
     forces       :      0.39s CPU      0.41s WALL (       1 calls)

     Called by init_run:
     wfcinit      :      0.29s CPU      0.30s WALL (       1 calls)
     potinit      :      0.16s CPU      0.18s WALL (       1 calls)
     hinit0       :      0.06s CPU      0.07s WALL (       1 calls)

     Called by electrons:
     c_bands      :      8.27s CPU      8.35s WALL (      18 calls)
     sum_band     :      1.28s CPU      1.30s WALL (      18 calls)
     v_of_rho     :      1.74s CPU      1.87s WALL (      19 calls)
     mix_rho      :      0.41s CPU      0.42s WALL (      18 calls)

     Called by c_bands:
     init_us_2    :      0.12s CPU      0.12s WALL (      37 calls)
     regterg      :      8.11s CPU      8.18s WALL (      18 calls)

     Called by *egterg:
     rdiaghg      :      0.08s CPU      0.08s WALL (      77 calls)
     h_psi        :      6.84s CPU      6.91s WALL (      78 calls)
     g_psi        :      0.02s CPU      0.02s WALL (      59 calls)

     Called by h_psi:
     h_psi:calbec :      1.32s CPU      1.33s WALL (      78 calls)
     vloc_psi     :      4.46s CPU      4.52s WALL (      78 calls)
     add_vuspsi   :      1.02s CPU      1.03s WALL (      78 calls)

     General routines
     calbec       :      1.42s CPU      1.42s WALL (      82 calls)
     fft          :      1.05s CPU      1.11s WALL (     160 calls)
     ffts         :      0.13s CPU      0.13s WALL (      18 calls)
     fftw         :      4.18s CPU      4.24s WALL (    1378 calls)

     Parallel routines

     PWSCF        :     12.69s CPU     12.98s WALL


   This run was terminated on:   0:39:41  24May2021            

=------------------------------------------------------------------------------=
   JOB DONE.
=------------------------------------------------------------------------------=
