
     Program PWSCF v.6.7GPU starts on 24May2021 at  0:42:27 

     This program is part of the open-source Quantum ESPRESSO suite
     for quantum simulation of materials; please cite
         "P. Giannozzi et al., J. Phys.:Condens. Matter 21 395502 (2009);
         "P. Giannozzi et al., J. Phys.:Condens. Matter 29 465901 (2017);
         "P. Giannozzi et al., J. Chem. Phys. 152 154105 (2020);
          URL http://www.quantum-espresso.org", 
     in publications or presentations arising from this work. More details at
     http://www.quantum-espresso.org/quote

     Parallel version (MPI), running on     4 processors

     MPI processes distributed on     1 nodes
     R & G space division:  proc/nbgrp/npool/nimage =       4
     Waiting for input...
     Reading input from standard input
     Message from routine read_cards :
     DEPRECATED: no units specified in CELL_PARAMETERS card

     Current dimensions of program PWSCF are:
     Max number of different atomic species (ntypx) = 10
     Max number of k-points (npk) =  40000
     Max angular momentum in pseudopotentials (lmaxx) =  3

     gamma-point specific algorithms are used

     Subspace diagonalization in iterative solution of the eigenvalue problem:
     one sub-group per band group will be used
     scalapack distributed-memory algorithm (size of sub-group:  2*  2 procs)


     Parallelization info
     --------------------
     sticks:   dense  smooth     PW     G-vecs:    dense   smooth      PW
     Min        2230    2230    557               158211   158211   19778
     Max        2234    2234    560               158214   158214   19781
     Sum        8929    8929   2233               632851   632851   79117

     Using Slab Decomposition



     bravais-lattice index     =            0
     lattice parameter (alat)  =      20.0000  a.u.
     unit-cell volume          =    8000.0000 (a.u.)^3
     number of atoms/cell      =           18
     number of atomic types    =            2
     number of electrons       =        42.00
     number of Kohn-Sham states=           21
     kinetic-energy cutoff     =      70.0000  Ry
     charge density cutoff     =     280.0000  Ry
     scf convergence threshold =      1.0E-12
     mixing beta               =       0.5000
     number of iterations used =            8  plain     mixing
     Exchange-correlation= PBE
                           (   1   4   3   4   0   0   0)

     celldm(1)=  20.000000  celldm(2)=   0.000000  celldm(3)=   0.000000
     celldm(4)=   0.000000  celldm(5)=   0.000000  celldm(6)=   0.000000

     crystal axes: (cart. coord. in units of alat)
               a(1) = (   1.000000   0.000000   0.000000 )  
               a(2) = (   0.000000   1.000000   0.000000 )  
               a(3) = (   0.000000   0.000000   1.000000 )  

     reciprocal axes: (cart. coord. in units 2 pi/alat)
               b(1) = (  1.000000  0.000000  0.000000 )  
               b(2) = (  0.000000  1.000000  0.000000 )  
               b(3) = (  0.000000  0.000000  1.000000 )  


     PseudoPot. # 1 for C  read from file:
     /home/ciga/builds/pseudo_potentials/C.upf
     MD5 check sum: d80ec9912146af6c4c1760317d1f95e9
     Pseudo is Norm-conserving + core correction, Zval =  4.0
     Generated using ONCVPSP code by D. R. Hamann
     Using radial grid of 1248 points,  4 beta functions with: 
                l(1) =   0
                l(2) =   0
                l(3) =   1
                l(4) =   1

     PseudoPot. # 2 for H  read from file:
     /home/ciga/builds/pseudo_potentials/H.upf
     MD5 check sum: 418cee52d0c413ae40802e6cc37ab9e3
     Pseudo is Norm-conserving, Zval =  1.0
     Generated using ONCVPSP code by D. R. Hamann
     Using radial grid of 1166 points,  3 beta functions with: 
                l(1) =   0
                l(2) =   0
                l(3) =   1

     atomic species   valence    mass     pseudopotential
        C              4.00    12.01070     C ( 1.00)
        H              1.00     1.00794     H ( 1.00)

     No symmetry found



   Cartesian axes

     site n.     atom                  positions (alat units)
         1           C   tau(   1) = (  -0.2144228  -0.0000037  -0.0226647  )
         2           C   tau(   2) = (  -0.1492605  -0.1139793  -0.0094975  )
         3           C   tau(   3) = (  -0.0199434  -0.1136681   0.0165275  )
         4           C   tau(   4) = (   0.0467953   0.0000038   0.0299330  )
         5           C   tau(   5) = (  -0.0199488   0.1136718   0.0165239  )
         6           C   tau(   6) = (  -0.1492662   0.1139754  -0.0095007  )
         7           H   tau(   7) = (  -0.3154869  -0.0000065  -0.0425490  )
         8           H   tau(   8) = (  -0.1993916  -0.2035092  -0.0190116  )
         9           H   tau(   9) = (   0.0301943  -0.2032326   0.0272614  )
        10           H   tau(  10) = (   0.0301844   0.2032390   0.0272548  )
        11           H   tau(  11) = (  -0.1994030   0.2035016  -0.0190178  )
        12           C   tau(  12) = (   0.2659513  -0.0000036  -0.0675374  )
        13           C   tau(  13) = (   0.1873634   0.0000047   0.0545913  )
        14           H   tau(  14) = (   0.2449671  -0.0837154  -0.1251783  )
        15           H   tau(  15) = (   0.2450090   0.0837288  -0.1251636  )
        16           H   tau(  16) = (   0.3675903  -0.0000310  -0.0464371  )
        17           H   tau(  17) = (   0.2123467  -0.0833402   0.1115232  )
        18           H   tau(  18) = (   0.2123500   0.0833537   0.1115156  )

     number of k points=     1
                       cart. coord. in units 2pi/alat
        k(    1) = (   0.0000000   0.0000000   0.0000000), wk =   2.0000000

     Dense  grid:   316426 G-vectors     FFT dimensions: ( 108, 108, 108)

     Estimated max dynamical RAM per process >      90.79 MB

     Estimated total dynamical RAM >     363.15 MB

     Initial potential from superposition of free atoms

     starting charge   41.99955, renormalised to   42.00000

     negative rho (up, down):  1.022E-04 0.000E+00
     Starting wfcs are   42 randomized atomic wfcs

     total cpu time spent up to now is        2.0 secs

     Self-consistent Calculation

     iteration #  1     ecut=    70.00 Ry     beta= 0.50
     Davidson diagonalization with overlap
     ethr =  1.00E-02,  avg # of iterations =  2.0

     negative rho (up, down):  2.890E-05 0.000E+00

     total cpu time spent up to now is        4.5 secs

     total energy              =    -107.85357238 Ry
     estimated scf accuracy    <       2.04906983 Ry

     iteration #  2     ecut=    70.00 Ry     beta= 0.50
     Davidson diagonalization with overlap
     ethr =  4.88E-03,  avg # of iterations =  2.0

     negative rho (up, down):  9.988E-06 0.000E+00

     total cpu time spent up to now is        6.9 secs

     total energy              =    -108.15088606 Ry
     estimated scf accuracy    <       0.15416887 Ry

     iteration #  3     ecut=    70.00 Ry     beta= 0.50
     Davidson diagonalization with overlap
     ethr =  3.67E-04,  avg # of iterations =  2.0

     negative rho (up, down):  6.787E-07 0.000E+00

     total cpu time spent up to now is        8.8 secs

     total energy              =    -108.14945245 Ry
     estimated scf accuracy    <       0.02766420 Ry

     iteration #  4     ecut=    70.00 Ry     beta= 0.50
     Davidson diagonalization with overlap
     ethr =  6.59E-05,  avg # of iterations =  2.0

     negative rho (up, down):  6.560E-08 0.000E+00

     total cpu time spent up to now is       11.1 secs

     total energy              =    -108.15293445 Ry
     estimated scf accuracy    <       0.00190699 Ry

     iteration #  5     ecut=    70.00 Ry     beta= 0.50
     Davidson diagonalization with overlap
     ethr =  4.54E-06,  avg # of iterations =  2.0

     negative rho (up, down):  1.783E-08 0.000E+00

     total cpu time spent up to now is       13.6 secs

     total energy              =    -108.15359263 Ry
     estimated scf accuracy    <       0.00051908 Ry

     iteration #  6     ecut=    70.00 Ry     beta= 0.50
     Davidson diagonalization with overlap
     ethr =  1.24E-06,  avg # of iterations =  2.0

     total cpu time spent up to now is       16.0 secs

     total energy              =    -108.15369556 Ry
     estimated scf accuracy    <       0.00001163 Ry

     iteration #  7     ecut=    70.00 Ry     beta= 0.50
     Davidson diagonalization with overlap
     ethr =  2.77E-08,  avg # of iterations =  6.0

     total cpu time spent up to now is       19.4 secs

     total energy              =    -108.15370219 Ry
     estimated scf accuracy    <       0.00001215 Ry

     iteration #  8     ecut=    70.00 Ry     beta= 0.50
     Davidson diagonalization with overlap
     ethr =  2.77E-08,  avg # of iterations =  4.0

     total cpu time spent up to now is       21.9 secs

     total energy              =    -108.15370588 Ry
     estimated scf accuracy    <       0.00000194 Ry

     iteration #  9     ecut=    70.00 Ry     beta= 0.50
     Davidson diagonalization with overlap
     ethr =  4.62E-09,  avg # of iterations =  4.0

     total cpu time spent up to now is       24.3 secs

     total energy              =    -108.15370622 Ry
     estimated scf accuracy    <       0.00000010 Ry

     iteration # 10     ecut=    70.00 Ry     beta= 0.50
     Davidson diagonalization with overlap
     ethr =  2.34E-10,  avg # of iterations =  3.0

     total cpu time spent up to now is       27.2 secs

     total energy              =    -108.15370624 Ry
     estimated scf accuracy    <       0.00000009 Ry

     iteration # 11     ecut=    70.00 Ry     beta= 0.50
     Davidson diagonalization with overlap
     ethr =  2.12E-10,  avg # of iterations =  4.0

     total cpu time spent up to now is       29.5 secs

     total energy              =    -108.15370625 Ry
     estimated scf accuracy    <          4.6E-09 Ry

     iteration # 12     ecut=    70.00 Ry     beta= 0.50
     Davidson diagonalization with overlap
     ethr =  1.09E-11,  avg # of iterations =  5.0

     total cpu time spent up to now is       32.2 secs

     total energy              =    -108.15370625 Ry
     estimated scf accuracy    <          1.0E-09 Ry

     iteration # 13     ecut=    70.00 Ry     beta= 0.50
     Davidson diagonalization with overlap
     ethr =  2.40E-12,  avg # of iterations =  5.0

     total cpu time spent up to now is       35.1 secs

     total energy              =    -108.15370625 Ry
     estimated scf accuracy    <          4.7E-10 Ry

     iteration # 14     ecut=    70.00 Ry     beta= 0.50
     Davidson diagonalization with overlap
     ethr =  1.11E-12,  avg # of iterations =  2.0

     total cpu time spent up to now is       37.1 secs

     total energy              =    -108.15370625 Ry
     estimated scf accuracy    <          8.4E-11 Ry

     iteration # 15     ecut=    70.00 Ry     beta= 0.50
     Davidson diagonalization with overlap
     ethr =  2.00E-13,  avg # of iterations =  6.0

     total cpu time spent up to now is       40.0 secs

     total energy              =    -108.15370625 Ry
     estimated scf accuracy    <          9.8E-11 Ry

     iteration # 16     ecut=    70.00 Ry     beta= 0.50
     Davidson diagonalization with overlap
     ethr =  2.00E-13,  avg # of iterations =  3.0

     total cpu time spent up to now is       42.0 secs

     total energy              =    -108.15370625 Ry
     estimated scf accuracy    <          2.0E-11 Ry

     iteration # 17     ecut=    70.00 Ry     beta= 0.50
     Davidson diagonalization with overlap
     ethr =  1.00E-13,  avg # of iterations =  5.0

     total cpu time spent up to now is       44.4 secs

     total energy              =    -108.15370625 Ry
     estimated scf accuracy    <          1.4E-11 Ry

     iteration # 18     ecut=    70.00 Ry     beta= 0.50
     Davidson diagonalization with overlap
     ethr =  1.00E-13,  avg # of iterations =  2.0

     total cpu time spent up to now is       46.4 secs

     total energy              =    -108.15370625 Ry
     estimated scf accuracy    <          1.9E-12 Ry

     iteration # 19     ecut=    70.00 Ry     beta= 0.50
     Davidson diagonalization with overlap
     ethr =  1.00E-13,  avg # of iterations =  1.0

     total cpu time spent up to now is       48.1 secs

     End of self-consistent calculation

          k = 0.0000 0.0000 0.0000 ( 39559 PWs)   bands (ev):

   -20.5046 -18.7118 -17.5884 -17.0457 -14.7890 -14.0848 -13.3541 -11.7413
   -10.6449 -10.3572  -9.6870  -9.4774  -9.2781  -8.8927  -8.2056  -7.8489
    -7.6446  -7.1616  -7.1511  -5.4883  -5.2675

     highest occupied level (ev):    -5.2675

!    total energy              =    -108.15370625 Ry
     estimated scf accuracy    <          1.5E-13 Ry

     The total energy is the sum of the following terms:
     one-electron contribution =    -386.11892067 Ry
     hartree contribution      =     199.04793330 Ry
     xc contribution           =     -41.29212656 Ry
     ewald contribution        =     120.20940768 Ry

     convergence has been achieved in  19 iterations

     Forces acting on atoms (cartesian axes, Ry/au):

     atom    1 type  1   force =    -0.00076370   -0.00000241   -0.00037499
     atom    2 type  1   force =    -0.00069923   -0.00086427    0.00021650
     atom    3 type  1   force =     0.00070388   -0.00089299    0.00017946
     atom    4 type  1   force =    -0.00060235   -0.00000179   -0.00023634
     atom    5 type  1   force =     0.00070415    0.00089371    0.00018064
     atom    6 type  1   force =    -0.00070117    0.00086396    0.00021534
     atom    7 type  2   force =     0.00090125    0.00000041   -0.00037124
     atom    8 type  2   force =     0.00071703    0.00125111    0.00009789
     atom    9 type  2   force =    -0.00071184    0.00131506   -0.00013601
     atom   10 type  2   force =    -0.00071116   -0.00131353   -0.00013583
     atom   11 type  2   force =     0.00071923   -0.00124847    0.00009842
     atom   12 type  1   force =     0.00006366    0.00000004   -0.00093694
     atom   13 type  1   force =     0.00082862   -0.00000241    0.00144040
     atom   14 type  2   force =     0.00028395    0.00081325    0.00052570
     atom   15 type  2   force =     0.00028066   -0.00081451    0.00052319
     atom   16 type  2   force =    -0.00065897    0.00000277    0.00002138
     atom   17 type  2   force =    -0.00017687    0.00088902   -0.00065378
     atom   18 type  2   force =    -0.00017712   -0.00088893   -0.00065378

     Total force =     0.004960     Total SCF correction =     0.000001

     Writing output data file ./Ethybenzene.save/

     init_run     :      1.83s CPU      1.92s WALL (       1 calls)
     electrons    :     45.57s CPU     46.17s WALL (       1 calls)
     forces       :      1.13s CPU      1.15s WALL (       1 calls)

     Called by init_run:
     wfcinit      :      1.09s CPU      1.11s WALL (       1 calls)
     potinit      :      0.45s CPU      0.50s WALL (       1 calls)
     hinit0       :      0.17s CPU      0.18s WALL (       1 calls)

     Called by electrons:
     c_bands      :     32.68s CPU     32.94s WALL (      19 calls)
     sum_band     :      5.14s CPU      5.17s WALL (      19 calls)
     v_of_rho     :      6.02s CPU      6.35s WALL (      20 calls)
     mix_rho      :      1.81s CPU      1.82s WALL (      19 calls)

     Called by c_bands:
     init_us_2    :      0.35s CPU      0.37s WALL (      39 calls)
     regterg      :     32.20s CPU     32.45s WALL (      19 calls)

     Called by *egterg:
     rdiaghg      :      0.10s CPU      0.10s WALL (      81 calls)
     h_psi        :     27.42s CPU     27.61s WALL (      82 calls)
     g_psi        :      0.06s CPU      0.06s WALL (      62 calls)

     Called by h_psi:
     h_psi:calbec :      4.08s CPU      4.09s WALL (      82 calls)
     vloc_psi     :     19.94s CPU     20.11s WALL (      82 calls)
     add_vuspsi   :      3.26s CPU      3.27s WALL (      82 calls)

     General routines
     calbec       :      4.37s CPU      4.38s WALL (      86 calls)
     fft          :      4.23s CPU      4.29s WALL (     168 calls)
     ffts         :      0.49s CPU      0.49s WALL (      19 calls)
     fftw         :     19.54s CPU     19.67s WALL (    1461 calls)

     Parallel routines

     PWSCF        :     48.61s CPU     49.35s WALL


   This run was terminated on:   0:43:17  24May2021            

=------------------------------------------------------------------------------=
   JOB DONE.
=------------------------------------------------------------------------------=
