
     Program PWSCF v.6.7GPU starts on 24May2021 at  0:40:48 

     This program is part of the open-source Quantum ESPRESSO suite
     for quantum simulation of materials; please cite
         "P. Giannozzi et al., J. Phys.:Condens. Matter 21 395502 (2009);
         "P. Giannozzi et al., J. Phys.:Condens. Matter 29 465901 (2017);
         "P. Giannozzi et al., J. Chem. Phys. 152 154105 (2020);
          URL http://www.quantum-espresso.org", 
     in publications or presentations arising from this work. More details at
     http://www.quantum-espresso.org/quote

     Parallel version (MPI), running on     4 processors

     MPI processes distributed on     1 nodes
     R & G space division:  proc/nbgrp/npool/nimage =       4
     Waiting for input...
     Reading input from standard input
     Message from routine read_cards :
     DEPRECATED: no units specified in CELL_PARAMETERS card

     Current dimensions of program PWSCF are:
     Max number of different atomic species (ntypx) = 10
     Max number of k-points (npk) =  40000
     Max angular momentum in pseudopotentials (lmaxx) =  3

     gamma-point specific algorithms are used

     Subspace diagonalization in iterative solution of the eigenvalue problem:
     one sub-group per band group will be used
     scalapack distributed-memory algorithm (size of sub-group:  2*  2 procs)


     Parallelization info
     --------------------
     sticks:   dense  smooth     PW     G-vecs:    dense   smooth      PW
     Min        1753    1753    438               110351   110351   13793
     Max        1756    1756    440               110356   110356   13796
     Sum        7017    7017   1757               441415   441415   55179

     Using Slab Decomposition



     bravais-lattice index     =            0
     lattice parameter (alat)  =      20.0000  a.u.
     unit-cell volume          =    8000.0000 (a.u.)^3
     number of atoms/cell      =           18
     number of atomic types    =            2
     number of electrons       =        42.00
     number of Kohn-Sham states=           21
     kinetic-energy cutoff     =      55.0000  Ry
     charge density cutoff     =     220.0000  Ry
     scf convergence threshold =      1.0E-12
     mixing beta               =       0.5000
     number of iterations used =            8  plain     mixing
     Exchange-correlation= PBE
                           (   1   4   3   4   0   0   0)

     celldm(1)=  20.000000  celldm(2)=   0.000000  celldm(3)=   0.000000
     celldm(4)=   0.000000  celldm(5)=   0.000000  celldm(6)=   0.000000

     crystal axes: (cart. coord. in units of alat)
               a(1) = (   1.000000   0.000000   0.000000 )  
               a(2) = (   0.000000   1.000000   0.000000 )  
               a(3) = (   0.000000   0.000000   1.000000 )  

     reciprocal axes: (cart. coord. in units 2 pi/alat)
               b(1) = (  1.000000  0.000000  0.000000 )  
               b(2) = (  0.000000  1.000000  0.000000 )  
               b(3) = (  0.000000  0.000000  1.000000 )  


     PseudoPot. # 1 for C  read from file:
     /home/ciga/builds/pseudo_potentials/C.upf
     MD5 check sum: d80ec9912146af6c4c1760317d1f95e9
     Pseudo is Norm-conserving + core correction, Zval =  4.0
     Generated using ONCVPSP code by D. R. Hamann
     Using radial grid of 1248 points,  4 beta functions with: 
                l(1) =   0
                l(2) =   0
                l(3) =   1
                l(4) =   1

     PseudoPot. # 2 for H  read from file:
     /home/ciga/builds/pseudo_potentials/H.upf
     MD5 check sum: 418cee52d0c413ae40802e6cc37ab9e3
     Pseudo is Norm-conserving, Zval =  1.0
     Generated using ONCVPSP code by D. R. Hamann
     Using radial grid of 1166 points,  3 beta functions with: 
                l(1) =   0
                l(2) =   0
                l(3) =   1

     atomic species   valence    mass     pseudopotential
        C              4.00    12.01070     C ( 1.00)
        H              1.00     1.00794     H ( 1.00)

     No symmetry found



   Cartesian axes

     site n.     atom                  positions (alat units)
         1           C   tau(   1) = (  -0.2144228  -0.0000037  -0.0226647  )
         2           C   tau(   2) = (  -0.1492605  -0.1139793  -0.0094975  )
         3           C   tau(   3) = (  -0.0199434  -0.1136681   0.0165275  )
         4           C   tau(   4) = (   0.0467953   0.0000038   0.0299330  )
         5           C   tau(   5) = (  -0.0199488   0.1136718   0.0165239  )
         6           C   tau(   6) = (  -0.1492662   0.1139754  -0.0095007  )
         7           H   tau(   7) = (  -0.3154869  -0.0000065  -0.0425490  )
         8           H   tau(   8) = (  -0.1993916  -0.2035092  -0.0190116  )
         9           H   tau(   9) = (   0.0301943  -0.2032326   0.0272614  )
        10           H   tau(  10) = (   0.0301844   0.2032390   0.0272548  )
        11           H   tau(  11) = (  -0.1994030   0.2035016  -0.0190178  )
        12           C   tau(  12) = (   0.2659513  -0.0000036  -0.0675374  )
        13           C   tau(  13) = (   0.1873634   0.0000047   0.0545913  )
        14           H   tau(  14) = (   0.2449671  -0.0837154  -0.1251783  )
        15           H   tau(  15) = (   0.2450090   0.0837288  -0.1251636  )
        16           H   tau(  16) = (   0.3675903  -0.0000310  -0.0464371  )
        17           H   tau(  17) = (   0.2123467  -0.0833402   0.1115232  )
        18           H   tau(  18) = (   0.2123500   0.0833537   0.1115156  )

     number of k points=     1
                       cart. coord. in units 2pi/alat
        k(    1) = (   0.0000000   0.0000000   0.0000000), wk =   2.0000000

     Dense  grid:   220708 G-vectors     FFT dimensions: (  96,  96,  96)

     Estimated max dynamical RAM per process >      63.55 MB

     Estimated total dynamical RAM >     254.21 MB

     Initial potential from superposition of free atoms

     starting charge   41.99955, renormalised to   42.00000

     negative rho (up, down):  4.342E-04 0.000E+00
     Starting wfcs are   42 randomized atomic wfcs

     total cpu time spent up to now is        1.3 secs

     Self-consistent Calculation

     iteration #  1     ecut=    55.00 Ry     beta= 0.50
     Davidson diagonalization with overlap
     ethr =  1.00E-02,  avg # of iterations =  2.0

     negative rho (up, down):  1.784E-04 0.000E+00

     total cpu time spent up to now is        2.8 secs

     total energy              =    -107.80847910 Ry
     estimated scf accuracy    <       2.02442784 Ry

     iteration #  2     ecut=    55.00 Ry     beta= 0.50
     Davidson diagonalization with overlap
     ethr =  4.82E-03,  avg # of iterations =  2.0

     negative rho (up, down):  7.176E-05 0.000E+00

     total cpu time spent up to now is        4.3 secs

     total energy              =    -108.09928086 Ry
     estimated scf accuracy    <       0.15315831 Ry

     iteration #  3     ecut=    55.00 Ry     beta= 0.50
     Davidson diagonalization with overlap
     ethr =  3.65E-04,  avg # of iterations =  2.0

     negative rho (up, down):  5.369E-06 0.000E+00

     total cpu time spent up to now is        5.4 secs

     total energy              =    -108.09777320 Ry
     estimated scf accuracy    <       0.02733608 Ry

     iteration #  4     ecut=    55.00 Ry     beta= 0.50
     Davidson diagonalization with overlap
     ethr =  6.51E-05,  avg # of iterations =  2.0

     negative rho (up, down):  3.738E-07 0.000E+00

     total cpu time spent up to now is        6.8 secs

     total energy              =    -108.10118306 Ry
     estimated scf accuracy    <       0.00186002 Ry

     iteration #  5     ecut=    55.00 Ry     beta= 0.50
     Davidson diagonalization with overlap
     ethr =  4.43E-06,  avg # of iterations =  2.0

     negative rho (up, down):  4.756E-08 0.000E+00

     total cpu time spent up to now is        8.3 secs

     total energy              =    -108.10181856 Ry
     estimated scf accuracy    <       0.00048867 Ry

     iteration #  6     ecut=    55.00 Ry     beta= 0.50
     Davidson diagonalization with overlap
     ethr =  1.16E-06,  avg # of iterations =  2.0

     total cpu time spent up to now is        9.8 secs

     total energy              =    -108.10191732 Ry
     estimated scf accuracy    <       0.00001063 Ry

     iteration #  7     ecut=    55.00 Ry     beta= 0.50
     Davidson diagonalization with overlap
     ethr =  2.53E-08,  avg # of iterations =  6.0

     total cpu time spent up to now is       11.8 secs

     total energy              =    -108.10192263 Ry
     estimated scf accuracy    <       0.00001103 Ry

     iteration #  8     ecut=    55.00 Ry     beta= 0.50
     Davidson diagonalization with overlap
     ethr =  2.53E-08,  avg # of iterations =  4.0

     total cpu time spent up to now is       13.3 secs

     total energy              =    -108.10192607 Ry
     estimated scf accuracy    <       0.00000235 Ry

     iteration #  9     ecut=    55.00 Ry     beta= 0.50
     Davidson diagonalization with overlap
     ethr =  5.60E-09,  avg # of iterations =  4.0

     total cpu time spent up to now is       14.7 secs

     total energy              =    -108.10192642 Ry
     estimated scf accuracy    <       0.00000010 Ry

     iteration # 10     ecut=    55.00 Ry     beta= 0.50
     Davidson diagonalization with overlap
     ethr =  2.43E-10,  avg # of iterations =  3.0

     total cpu time spent up to now is       16.5 secs

     total energy              =    -108.10192646 Ry
     estimated scf accuracy    <       0.00000011 Ry

     iteration # 11     ecut=    55.00 Ry     beta= 0.50
     Davidson diagonalization with overlap
     ethr =  2.43E-10,  avg # of iterations =  2.0

     total cpu time spent up to now is       17.8 secs

     total energy              =    -108.10192647 Ry
     estimated scf accuracy    <          5.1E-09 Ry

     iteration # 12     ecut=    55.00 Ry     beta= 0.50
     Davidson diagonalization with overlap
     ethr =  1.21E-11,  avg # of iterations =  6.0

     total cpu time spent up to now is       19.6 secs

     total energy              =    -108.10192648 Ry
     estimated scf accuracy    <          1.0E-09 Ry

     iteration # 13     ecut=    55.00 Ry     beta= 0.50
     Davidson diagonalization with overlap
     ethr =  2.41E-12,  avg # of iterations =  5.0

     total cpu time spent up to now is       21.0 secs

     total energy              =    -108.10192648 Ry
     estimated scf accuracy    <          3.4E-11 Ry

     iteration # 14     ecut=    55.00 Ry     beta= 0.50
     Davidson diagonalization with overlap
     ethr =  1.00E-13,  avg # of iterations =  4.0

     total cpu time spent up to now is       22.7 secs

     total energy              =    -108.10192648 Ry
     estimated scf accuracy    <          1.0E-11 Ry

     iteration # 15     ecut=    55.00 Ry     beta= 0.50
     Davidson diagonalization with overlap
     ethr =  1.00E-13,  avg # of iterations =  2.0

     total cpu time spent up to now is       23.9 secs

     total energy              =    -108.10192648 Ry
     estimated scf accuracy    <          1.7E-12 Ry

     iteration # 16     ecut=    55.00 Ry     beta= 0.50
     Davidson diagonalization with overlap
     ethr =  1.00E-13,  avg # of iterations =  1.0

     total cpu time spent up to now is       24.9 secs

     End of self-consistent calculation

          k = 0.0000 0.0000 0.0000 ( 27590 PWs)   bands (ev):

   -20.5230 -18.7290 -17.6050 -17.0619 -14.8015 -14.0954 -13.3637 -11.7432
   -10.6484 -10.3611  -9.6877  -9.4787  -9.2778  -8.8927  -8.2049  -7.8481
    -7.6429  -7.1604  -7.1494  -5.4860  -5.2650

     highest occupied level (ev):    -5.2650

!    total energy              =    -108.10192648 Ry
     estimated scf accuracy    <          1.8E-13 Ry

     The total energy is the sum of the following terms:
     one-electron contribution =    -386.02882904 Ry
     hartree contribution      =     198.98857050 Ry
     xc contribution           =     -41.27107512 Ry
     ewald contribution        =     120.20940718 Ry

     convergence has been achieved in  16 iterations

     Forces acting on atoms (cartesian axes, Ry/au):

     atom    1 type  1   force =    -0.00193198   -0.00000252   -0.00056923
     atom    2 type  1   force =    -0.00118126   -0.00176585    0.00006986
     atom    3 type  1   force =     0.00137510   -0.00153273    0.00032568
     atom    4 type  1   force =     0.00264014   -0.00000188    0.00040911
     atom    5 type  1   force =     0.00137535    0.00153373    0.00032658
     atom    6 type  1   force =    -0.00118303    0.00176551    0.00006822
     atom    7 type  2   force =     0.00010643    0.00000039   -0.00053849
     atom    8 type  2   force =     0.00032788    0.00052306    0.00003689
     atom    9 type  2   force =    -0.00031499    0.00054856   -0.00005829
     atom   10 type  2   force =    -0.00031436   -0.00054699   -0.00005813
     atom   11 type  2   force =     0.00033004   -0.00052047    0.00003741
     atom   12 type  1   force =    -0.00129972    0.00000010    0.00121927
     atom   13 type  1   force =    -0.00061680   -0.00000248   -0.00124601
     atom   14 type  2   force =     0.00011392    0.00000661   -0.00004996
     atom   15 type  2   force =     0.00011102   -0.00000770   -0.00005228
     atom   16 type  2   force =     0.00030556    0.00000249    0.00020243
     atom   17 type  2   force =     0.00007846    0.00005050   -0.00006150
     atom   18 type  2   force =     0.00007824   -0.00005034   -0.00006155

     Total force =     0.006008     Total SCF correction =     0.000000

     Writing output data file ./Ethybenzene.save/

     init_run     :      1.16s CPU      1.21s WALL (       1 calls)
     electrons    :     23.29s CPU     23.64s WALL (       1 calls)
     forces       :      0.78s CPU      0.80s WALL (       1 calls)

     Called by init_run:
     wfcinit      :      0.65s CPU      0.66s WALL (       1 calls)
     potinit      :      0.32s CPU      0.35s WALL (       1 calls)
     hinit0       :      0.12s CPU      0.13s WALL (       1 calls)

     Called by electrons:
     c_bands      :     16.38s CPU     16.50s WALL (      16 calls)
     sum_band     :      2.63s CPU      2.65s WALL (      16 calls)
     v_of_rho     :      3.45s CPU      3.64s WALL (      17 calls)
     mix_rho      :      0.93s CPU      0.95s WALL (      16 calls)

     Called by c_bands:
     init_us_2    :      0.21s CPU      0.22s WALL (      33 calls)
     regterg      :     16.11s CPU     16.22s WALL (      16 calls)

     Called by *egterg:
     rdiaghg      :      0.07s CPU      0.07s WALL (      65 calls)
     h_psi        :     13.49s CPU     13.60s WALL (      66 calls)
     g_psi        :      0.03s CPU      0.03s WALL (      49 calls)

     Called by h_psi:
     h_psi:calbec :      2.38s CPU      2.39s WALL (      66 calls)
     vloc_psi     :      9.13s CPU      9.22s WALL (      66 calls)
     add_vuspsi   :      1.89s CPU      1.90s WALL (      66 calls)

     General routines
     calbec       :      2.58s CPU      2.59s WALL (      70 calls)
     fft          :      2.32s CPU      2.37s WALL (     144 calls)
     ffts         :      0.25s CPU      0.26s WALL (      16 calls)
     fftw         :      8.43s CPU      8.51s WALL (    1256 calls)

     Parallel routines

     PWSCF        :     25.32s CPU     25.76s WALL


   This run was terminated on:   0:41:13  24May2021            

=------------------------------------------------------------------------------=
   JOB DONE.
=------------------------------------------------------------------------------=
