
     Program PWSCF v.6.7GPU starts on 24May2021 at  0:39:59 

     This program is part of the open-source Quantum ESPRESSO suite
     for quantum simulation of materials; please cite
         "P. Giannozzi et al., J. Phys.:Condens. Matter 21 395502 (2009);
         "P. Giannozzi et al., J. Phys.:Condens. Matter 29 465901 (2017);
         "P. Giannozzi et al., J. Chem. Phys. 152 154105 (2020);
          URL http://www.quantum-espresso.org", 
     in publications or presentations arising from this work. More details at
     http://www.quantum-espresso.org/quote

     Parallel version (MPI), running on     4 processors

     MPI processes distributed on     1 nodes
     R & G space division:  proc/nbgrp/npool/nimage =       4
     Waiting for input...
     Reading input from standard input
     Message from routine read_cards :
     DEPRECATED: no units specified in CELL_PARAMETERS card

     Current dimensions of program PWSCF are:
     Max number of different atomic species (ntypx) = 10
     Max number of k-points (npk) =  40000
     Max angular momentum in pseudopotentials (lmaxx) =  3

     gamma-point specific algorithms are used

     Subspace diagonalization in iterative solution of the eigenvalue problem:
     one sub-group per band group will be used
     scalapack distributed-memory algorithm (size of sub-group:  2*  2 procs)


     Parallelization info
     --------------------
     sticks:   dense  smooth     PW     G-vecs:    dense   smooth      PW
     Min        1429    1429    358                81505    81505   10162
     Max        1432    1432    359                81512    81512   10165
     Sum        5721    5721   1433               326029   326029   40651

     Using Slab Decomposition



     bravais-lattice index     =            0
     lattice parameter (alat)  =      20.0000  a.u.
     unit-cell volume          =    8000.0000 (a.u.)^3
     number of atoms/cell      =           18
     number of atomic types    =            2
     number of electrons       =        42.00
     number of Kohn-Sham states=           21
     kinetic-energy cutoff     =      45.0000  Ry
     charge density cutoff     =     180.0000  Ry
     scf convergence threshold =      1.0E-12
     mixing beta               =       0.5000
     number of iterations used =            8  plain     mixing
     Exchange-correlation= PBE
                           (   1   4   3   4   0   0   0)

     celldm(1)=  20.000000  celldm(2)=   0.000000  celldm(3)=   0.000000
     celldm(4)=   0.000000  celldm(5)=   0.000000  celldm(6)=   0.000000

     crystal axes: (cart. coord. in units of alat)
               a(1) = (   1.000000   0.000000   0.000000 )  
               a(2) = (   0.000000   1.000000   0.000000 )  
               a(3) = (   0.000000   0.000000   1.000000 )  

     reciprocal axes: (cart. coord. in units 2 pi/alat)
               b(1) = (  1.000000  0.000000  0.000000 )  
               b(2) = (  0.000000  1.000000  0.000000 )  
               b(3) = (  0.000000  0.000000  1.000000 )  


     PseudoPot. # 1 for C  read from file:
     /home/ciga/builds/pseudo_potentials/C.upf
     MD5 check sum: d80ec9912146af6c4c1760317d1f95e9
     Pseudo is Norm-conserving + core correction, Zval =  4.0
     Generated using ONCVPSP code by D. R. Hamann
     Using radial grid of 1248 points,  4 beta functions with: 
                l(1) =   0
                l(2) =   0
                l(3) =   1
                l(4) =   1

     PseudoPot. # 2 for H  read from file:
     /home/ciga/builds/pseudo_potentials/H.upf
     MD5 check sum: 418cee52d0c413ae40802e6cc37ab9e3
     Pseudo is Norm-conserving, Zval =  1.0
     Generated using ONCVPSP code by D. R. Hamann
     Using radial grid of 1166 points,  3 beta functions with: 
                l(1) =   0
                l(2) =   0
                l(3) =   1

     atomic species   valence    mass     pseudopotential
        C              4.00    12.01070     C ( 1.00)
        H              1.00     1.00794     H ( 1.00)

     No symmetry found



   Cartesian axes

     site n.     atom                  positions (alat units)
         1           C   tau(   1) = (  -0.2144228  -0.0000037  -0.0226647  )
         2           C   tau(   2) = (  -0.1492605  -0.1139793  -0.0094975  )
         3           C   tau(   3) = (  -0.0199434  -0.1136681   0.0165275  )
         4           C   tau(   4) = (   0.0467953   0.0000038   0.0299330  )
         5           C   tau(   5) = (  -0.0199488   0.1136718   0.0165239  )
         6           C   tau(   6) = (  -0.1492662   0.1139754  -0.0095007  )
         7           H   tau(   7) = (  -0.3154869  -0.0000065  -0.0425490  )
         8           H   tau(   8) = (  -0.1993916  -0.2035092  -0.0190116  )
         9           H   tau(   9) = (   0.0301943  -0.2032326   0.0272614  )
        10           H   tau(  10) = (   0.0301844   0.2032390   0.0272548  )
        11           H   tau(  11) = (  -0.1994030   0.2035016  -0.0190178  )
        12           C   tau(  12) = (   0.2659513  -0.0000036  -0.0675374  )
        13           C   tau(  13) = (   0.1873634   0.0000047   0.0545913  )
        14           H   tau(  14) = (   0.2449671  -0.0837154  -0.1251783  )
        15           H   tau(  15) = (   0.2450090   0.0837288  -0.1251636  )
        16           H   tau(  16) = (   0.3675903  -0.0000310  -0.0464371  )
        17           H   tau(  17) = (   0.2123467  -0.0833402   0.1115232  )
        18           H   tau(  18) = (   0.2123500   0.0833537   0.1115156  )

     number of k points=     1
                       cart. coord. in units 2pi/alat
        k(    1) = (   0.0000000   0.0000000   0.0000000), wk =   2.0000000

     Dense  grid:   163015 G-vectors     FFT dimensions: (  90,  90,  90)

     Estimated max dynamical RAM per process >      48.67 MB

     Estimated total dynamical RAM >     194.68 MB

     Initial potential from superposition of free atoms

     starting charge   41.99955, renormalised to   42.00000

     negative rho (up, down):  1.096E-03 0.000E+00
     Starting wfcs are   42 randomized atomic wfcs

     total cpu time spent up to now is        1.1 secs

     Self-consistent Calculation

     iteration #  1     ecut=    45.00 Ry     beta= 0.50
     Davidson diagonalization with overlap
     ethr =  1.00E-02,  avg # of iterations =  2.0

     negative rho (up, down):  4.825E-04 0.000E+00

     total cpu time spent up to now is        2.4 secs

     total energy              =    -107.66936461 Ry
     estimated scf accuracy    <       1.96338226 Ry

     iteration #  2     ecut=    45.00 Ry     beta= 0.50
     Davidson diagonalization with overlap
     ethr =  4.67E-03,  avg # of iterations =  2.0

     negative rho (up, down):  1.937E-04 0.000E+00

     total cpu time spent up to now is        3.6 secs

     total energy              =    -107.94417110 Ry
     estimated scf accuracy    <       0.15169225 Ry

     iteration #  3     ecut=    45.00 Ry     beta= 0.50
     Davidson diagonalization with overlap
     ethr =  3.61E-04,  avg # of iterations =  2.0

     negative rho (up, down):  1.187E-05 0.000E+00

     total cpu time spent up to now is        4.6 secs

     total energy              =    -107.94380171 Ry
     estimated scf accuracy    <       0.02691568 Ry

     iteration #  4     ecut=    45.00 Ry     beta= 0.50
     Davidson diagonalization with overlap
     ethr =  6.41E-05,  avg # of iterations =  2.0

     negative rho (up, down):  5.840E-07 0.000E+00

     total cpu time spent up to now is        5.7 secs

     total energy              =    -107.94712062 Ry
     estimated scf accuracy    <       0.00190349 Ry

     iteration #  5     ecut=    45.00 Ry     beta= 0.50
     Davidson diagonalization with overlap
     ethr =  4.53E-06,  avg # of iterations =  2.0

     negative rho (up, down):  4.017E-08 0.000E+00

     total cpu time spent up to now is        7.0 secs

     total energy              =    -107.94777344 Ry
     estimated scf accuracy    <       0.00037420 Ry

     iteration #  6     ecut=    45.00 Ry     beta= 0.50
     Davidson diagonalization with overlap
     ethr =  8.91E-07,  avg # of iterations =  2.0

     total cpu time spent up to now is        8.2 secs

     total energy              =    -107.94784597 Ry
     estimated scf accuracy    <       0.00001276 Ry

     iteration #  7     ecut=    45.00 Ry     beta= 0.50
     Davidson diagonalization with overlap
     ethr =  3.04E-08,  avg # of iterations =  5.0

     total cpu time spent up to now is        9.8 secs

     total energy              =    -107.94785059 Ry
     estimated scf accuracy    <       0.00001248 Ry

     iteration #  8     ecut=    45.00 Ry     beta= 0.50
     Davidson diagonalization with overlap
     ethr =  2.97E-08,  avg # of iterations =  4.0

     total cpu time spent up to now is       11.1 secs

     total energy              =    -107.94785477 Ry
     estimated scf accuracy    <       0.00000414 Ry

     iteration #  9     ecut=    45.00 Ry     beta= 0.50
     Davidson diagonalization with overlap
     ethr =  9.87E-09,  avg # of iterations =  4.0

     total cpu time spent up to now is       12.2 secs

     total energy              =    -107.94785517 Ry
     estimated scf accuracy    <       0.00000027 Ry

     iteration # 10     ecut=    45.00 Ry     beta= 0.50
     Davidson diagonalization with overlap
     ethr =  6.51E-10,  avg # of iterations =  3.0

     total cpu time spent up to now is       13.6 secs

     total energy              =    -107.94785528 Ry
     estimated scf accuracy    <       0.00000019 Ry

     iteration # 11     ecut=    45.00 Ry     beta= 0.50
     Davidson diagonalization with overlap
     ethr =  4.62E-10,  avg # of iterations =  2.0

     total cpu time spent up to now is       14.8 secs

     total energy              =    -107.94785531 Ry
     estimated scf accuracy    <          7.1E-09 Ry

     iteration # 12     ecut=    45.00 Ry     beta= 0.50
     Davidson diagonalization with overlap
     ethr =  1.69E-11,  avg # of iterations =  6.0

     total cpu time spent up to now is       16.2 secs

     total energy              =    -107.94785531 Ry
     estimated scf accuracy    <          5.4E-10 Ry

     iteration # 13     ecut=    45.00 Ry     beta= 0.50
     Davidson diagonalization with overlap
     ethr =  1.29E-12,  avg # of iterations =  5.0

     total cpu time spent up to now is       17.5 secs

     total energy              =    -107.94785531 Ry
     estimated scf accuracy    <          1.2E-10 Ry

     iteration # 14     ecut=    45.00 Ry     beta= 0.50
     Davidson diagonalization with overlap
     ethr =  2.96E-13,  avg # of iterations =  4.0

     total cpu time spent up to now is       18.7 secs

     total energy              =    -107.94785531 Ry
     estimated scf accuracy    <          2.5E-11 Ry

     iteration # 15     ecut=    45.00 Ry     beta= 0.50
     Davidson diagonalization with overlap
     ethr =  1.00E-13,  avg # of iterations =  2.0

     total cpu time spent up to now is       19.8 secs

     total energy              =    -107.94785531 Ry
     estimated scf accuracy    <          8.8E-12 Ry

     iteration # 16     ecut=    45.00 Ry     beta= 0.50
     Davidson diagonalization with overlap
     ethr =  1.00E-13,  avg # of iterations =  5.0

     total cpu time spent up to now is       20.9 secs

     total energy              =    -107.94785531 Ry
     estimated scf accuracy    <          1.7E-11 Ry

     iteration # 17     ecut=    45.00 Ry     beta= 0.50
     Davidson diagonalization with overlap
     ethr =  1.00E-13,  avg # of iterations =  2.0

     total cpu time spent up to now is       21.9 secs

     total energy              =    -107.94785531 Ry
     estimated scf accuracy    <          2.6E-12 Ry

     iteration # 18     ecut=    45.00 Ry     beta= 0.50
     Davidson diagonalization with overlap
     ethr =  1.00E-13,  avg # of iterations =  2.0

     total cpu time spent up to now is       22.9 secs

     End of self-consistent calculation

          k = 0.0000 0.0000 0.0000 ( 20326 PWs)   bands (ev):

   -20.5700 -18.7687 -17.6458 -17.0993 -14.8289 -14.1173 -13.3814 -11.7490
   -10.6446 -10.3715  -9.6885  -9.4734  -9.2738  -8.8966  -8.1999  -7.8499
    -7.6337  -7.1482  -7.1376  -5.4815  -5.2597

     highest occupied level (ev):    -5.2597

!    total energy              =    -107.94785531 Ry
     estimated scf accuracy    <          1.4E-13 Ry

     The total energy is the sum of the following terms:
     one-electron contribution =    -385.76143906 Ry
     hartree contribution      =     198.82133254 Ry
     xc contribution           =     -41.21715630 Ry
     ewald contribution        =     120.20940751 Ry

     convergence has been achieved in  18 iterations

     Forces acting on atoms (cartesian axes, Ry/au):

     atom    1 type  1   force =    -0.01190233   -0.00000271   -0.00188447
     atom    2 type  1   force =    -0.00617427   -0.01077901   -0.00125852
     atom    3 type  1   force =     0.00607580   -0.01070096    0.00156902
     atom    4 type  1   force =     0.00535971   -0.00000150    0.00039510
     atom    5 type  1   force =     0.00607547    0.01070220    0.00156990
     atom    6 type  1   force =    -0.00617671    0.01077822   -0.00126054
     atom    7 type  2   force =     0.00101654    0.00000040   -0.00041556
     atom    8 type  2   force =     0.00083808    0.00139951    0.00012299
     atom    9 type  2   force =    -0.00076642    0.00145466   -0.00014219
     atom   10 type  2   force =    -0.00076573   -0.00145309   -0.00014200
     atom   11 type  2   force =     0.00084033   -0.00139692    0.00012350
     atom   12 type  1   force =     0.00140317   -0.00000021   -0.00354616
     atom   13 type  1   force =     0.00472309   -0.00000227    0.00484708
     atom   14 type  2   force =     0.00022743    0.00077054    0.00058294
     atom   15 type  2   force =     0.00022411   -0.00077147    0.00058019
     atom   16 type  2   force =    -0.00050813    0.00000255    0.00022009
     atom   17 type  2   force =    -0.00024491    0.00078419   -0.00068067
     atom   18 type  2   force =    -0.00024522   -0.00078412   -0.00068068

     Total force =     0.029506     Total SCF correction =     0.000000

     Writing output data file ./Ethybenzene.save/

     init_run     :      1.01s CPU      1.06s WALL (       1 calls)
     electrons    :     21.42s CPU     21.75s WALL (       1 calls)
     forces       :      0.61s CPU      0.62s WALL (       1 calls)

     Called by init_run:
     wfcinit      :      0.58s CPU      0.60s WALL (       1 calls)
     potinit      :      0.28s CPU      0.30s WALL (       1 calls)
     hinit0       :      0.11s CPU      0.12s WALL (       1 calls)

     Called by electrons:
     c_bands      :     15.04s CPU     15.14s WALL (      18 calls)
     sum_band     :      2.54s CPU      2.57s WALL (      18 calls)
     v_of_rho     :      3.18s CPU      3.37s WALL (      19 calls)
     mix_rho      :      0.74s CPU      0.75s WALL (      18 calls)

     Called by c_bands:
     init_us_2    :      0.17s CPU      0.18s WALL (      37 calls)
     regterg      :     14.80s CPU     14.90s WALL (      18 calls)

     Called by *egterg:
     rdiaghg      :      0.08s CPU      0.08s WALL (      74 calls)
     h_psi        :     12.93s CPU     13.02s WALL (      75 calls)
     g_psi        :      0.03s CPU      0.03s WALL (      56 calls)

     Called by h_psi:
     h_psi:calbec :      1.91s CPU      1.92s WALL (      75 calls)
     vloc_psi     :      9.45s CPU      9.53s WALL (      75 calls)
     add_vuspsi   :      1.50s CPU      1.51s WALL (      75 calls)

     General routines
     calbec       :      2.05s CPU      2.06s WALL (      79 calls)
     fft          :      2.15s CPU      2.18s WALL (     160 calls)
     ffts         :      0.25s CPU      0.25s WALL (      18 calls)
     fftw         :      9.08s CPU      9.15s WALL (    1368 calls)

     Parallel routines

     PWSCF        :     23.12s CPU     23.52s WALL


   This run was terminated on:   0:40:22  24May2021            

=------------------------------------------------------------------------------=
   JOB DONE.
=------------------------------------------------------------------------------=
