
     Program PWSCF v.6.7GPU starts on 24May2021 at  5:46:59 

     This program is part of the open-source Quantum ESPRESSO suite
     for quantum simulation of materials; please cite
         "P. Giannozzi et al., J. Phys.:Condens. Matter 21 395502 (2009);
         "P. Giannozzi et al., J. Phys.:Condens. Matter 29 465901 (2017);
         "P. Giannozzi et al., J. Chem. Phys. 152 154105 (2020);
          URL http://www.quantum-espresso.org", 
     in publications or presentations arising from this work. More details at
     http://www.quantum-espresso.org/quote

     Parallel version (MPI), running on     4 processors

     MPI processes distributed on     1 nodes
     R & G space division:  proc/nbgrp/npool/nimage =       4
     Waiting for input...
     Reading input from standard input
     Message from routine read_cards :
     DEPRECATED: no units specified in CELL_PARAMETERS card

     Current dimensions of program PWSCF are:
     Max number of different atomic species (ntypx) = 10
     Max number of k-points (npk) =  40000
     Max angular momentum in pseudopotentials (lmaxx) =  3

     gamma-point specific algorithms are used

     Subspace diagonalization in iterative solution of the eigenvalue problem:
     one sub-group per band group will be used
     scalapack distributed-memory algorithm (size of sub-group:  2*  2 procs)


     Parallelization info
     --------------------
     sticks:   dense  smooth     PW     G-vecs:    dense   smooth      PW
     Min        1753    1753    438               110351   110351   13793
     Max        1756    1756    440               110356   110356   13796
     Sum        7017    7017   1757               441415   441415   55179

     Using Slab Decomposition



     bravais-lattice index     =            0
     lattice parameter (alat)  =      20.0000  a.u.
     unit-cell volume          =    8000.0000 (a.u.)^3
     number of atoms/cell      =            6
     number of atomic types    =            3
     number of electrons       =        14.00
     number of Kohn-Sham states=            7
     kinetic-energy cutoff     =      55.0000  Ry
     charge density cutoff     =     220.0000  Ry
     scf convergence threshold =      1.0E-12
     mixing beta               =       0.5000
     number of iterations used =            8  plain     mixing
     Exchange-correlation= PBE
                           (   1   4   3   4   0   0   0)

     celldm(1)=  20.000000  celldm(2)=   0.000000  celldm(3)=   0.000000
     celldm(4)=   0.000000  celldm(5)=   0.000000  celldm(6)=   0.000000

     crystal axes: (cart. coord. in units of alat)
               a(1) = (   1.000000   0.000000   0.000000 )  
               a(2) = (   0.000000   1.000000   0.000000 )  
               a(3) = (   0.000000   0.000000   1.000000 )  

     reciprocal axes: (cart. coord. in units 2 pi/alat)
               b(1) = (  1.000000  0.000000  0.000000 )  
               b(2) = (  0.000000  1.000000  0.000000 )  
               b(3) = (  0.000000  0.000000  1.000000 )  


     PseudoPot. # 1 for C  read from file:
     /home/ciga/builds/pseudo_potentials/C.upf
     MD5 check sum: d80ec9912146af6c4c1760317d1f95e9
     Pseudo is Norm-conserving + core correction, Zval =  4.0
     Generated using ONCVPSP code by D. R. Hamann
     Using radial grid of 1248 points,  4 beta functions with: 
                l(1) =   0
                l(2) =   0
                l(3) =   1
                l(4) =   1

     PseudoPot. # 2 for O  read from file:
     /home/ciga/builds/pseudo_potentials/O.upf
     MD5 check sum: e357869f07dbe8d608261c380baea405
     Pseudo is Norm-conserving + core correction, Zval =  6.0
     Generated using ONCVPSP code by D. R. Hamann
     Using radial grid of  936 points,  5 beta functions with: 
                l(1) =   0
                l(2) =   0
                l(3) =   1
                l(4) =   1
                l(5) =   2

     PseudoPot. # 3 for H  read from file:
     /home/ciga/builds/pseudo_potentials/H.upf
     MD5 check sum: 418cee52d0c413ae40802e6cc37ab9e3
     Pseudo is Norm-conserving, Zval =  1.0
     Generated using ONCVPSP code by D. R. Hamann
     Using radial grid of 1166 points,  3 beta functions with: 
                l(1) =   0
                l(2) =   0
                l(3) =   1

     atomic species   valence    mass     pseudopotential
        C              4.00    12.01070     C ( 1.00)
        O              6.00    15.99940     O ( 1.00)
        H              1.00     1.00794     H ( 1.00)

     No symmetry found



   Cartesian axes

     site n.     atom                  positions (alat units)
         1           C   tau(   1) = (  -0.0682939  -0.0006651   0.0000000  )
         2           O   tau(   2) = (   0.0662998   0.0011046   0.0000000  )
         3           H   tau(   3) = (  -0.0966111  -0.1000789   0.0000000  )
         4           H   tau(   4) = (  -0.1098222   0.0430083  -0.0839355  )
         5           H   tau(   5) = (  -0.1084954   0.0442451   0.0839288  )
         6           H   tau(   6) = (   0.0935635   0.0861400   0.0000000  )

     number of k points=     1
                       cart. coord. in units 2pi/alat
        k(    1) = (   0.0000000   0.0000000   0.0000000), wk =   2.0000000

     Dense  grid:   220708 G-vectors     FFT dimensions: (  96,  96,  96)

     Estimated max dynamical RAM per process >      52.04 MB

     Estimated total dynamical RAM >     208.17 MB

     Check: negative core charge=   -0.000007

     Initial potential from superposition of free atoms

     starting charge   13.99991, renormalised to   14.00000

     negative rho (up, down):  5.812E-04 0.000E+00
     Starting wfcs are   12 randomized atomic wfcs

     total cpu time spent up to now is        0.9 secs

     Self-consistent Calculation

     iteration #  1     ecut=    55.00 Ry     beta= 0.50
     Davidson diagonalization with overlap
     ethr =  1.00E-02,  avg # of iterations =  2.0

     negative rho (up, down):  2.601E-04 0.000E+00

     total cpu time spent up to now is        1.5 secs

     total energy              =     -49.66244232 Ry
     estimated scf accuracy    <       0.66360298 Ry

     iteration #  2     ecut=    55.00 Ry     beta= 0.50
     Davidson diagonalization with overlap
     ethr =  4.74E-03,  avg # of iterations =  2.0

     negative rho (up, down):  1.249E-04 0.000E+00

     total cpu time spent up to now is        2.1 secs

     total energy              =     -49.77950025 Ry
     estimated scf accuracy    <       0.06602011 Ry

     iteration #  3     ecut=    55.00 Ry     beta= 0.50
     Davidson diagonalization with overlap
     ethr =  4.72E-04,  avg # of iterations =  2.0

     negative rho (up, down):  2.041E-05 0.000E+00

     total cpu time spent up to now is        2.7 secs

     total energy              =     -49.78023373 Ry
     estimated scf accuracy    <       0.01177089 Ry

     iteration #  4     ecut=    55.00 Ry     beta= 0.50
     Davidson diagonalization with overlap
     ethr =  8.41E-05,  avg # of iterations =  2.0

     negative rho (up, down):  2.626E-06 0.000E+00

     total cpu time spent up to now is        3.3 secs

     total energy              =     -49.78136481 Ry
     estimated scf accuracy    <       0.00095611 Ry

     iteration #  5     ecut=    55.00 Ry     beta= 0.50
     Davidson diagonalization with overlap
     ethr =  6.83E-06,  avg # of iterations =  2.0

     negative rho (up, down):  3.469E-08 0.000E+00

     total cpu time spent up to now is        3.9 secs

     total energy              =     -49.78158166 Ry
     estimated scf accuracy    <       0.00004152 Ry

     iteration #  6     ecut=    55.00 Ry     beta= 0.50
     Davidson diagonalization with overlap
     ethr =  2.97E-07,  avg # of iterations =  2.0

     total cpu time spent up to now is        4.5 secs

     total energy              =     -49.78158951 Ry
     estimated scf accuracy    <       0.00000848 Ry

     iteration #  7     ecut=    55.00 Ry     beta= 0.50
     Davidson diagonalization with overlap
     ethr =  6.06E-08,  avg # of iterations =  2.0

     total cpu time spent up to now is        5.2 secs

     total energy              =     -49.78159067 Ry
     estimated scf accuracy    <       0.00000072 Ry

     iteration #  8     ecut=    55.00 Ry     beta= 0.50
     Davidson diagonalization with overlap
     ethr =  5.16E-09,  avg # of iterations =  3.0

     total cpu time spent up to now is        5.8 secs

     total energy              =     -49.78159093 Ry
     estimated scf accuracy    <       0.00000053 Ry

     iteration #  9     ecut=    55.00 Ry     beta= 0.50
     Davidson diagonalization with overlap
     ethr =  3.82E-09,  avg # of iterations =  2.0

     total cpu time spent up to now is        6.5 secs

     total energy              =     -49.78159102 Ry
     estimated scf accuracy    <       0.00000001 Ry

     iteration # 10     ecut=    55.00 Ry     beta= 0.50
     Davidson diagonalization with overlap
     ethr =  8.40E-11,  avg # of iterations =  5.0

     total cpu time spent up to now is        7.2 secs

     total energy              =     -49.78159103 Ry
     estimated scf accuracy    <       0.00000001 Ry

     iteration # 11     ecut=    55.00 Ry     beta= 0.50
     Davidson diagonalization with overlap
     ethr =  8.40E-11,  avg # of iterations =  2.0

     total cpu time spent up to now is        7.9 secs

     total energy              =     -49.78159103 Ry
     estimated scf accuracy    <          2.2E-09 Ry

     iteration # 12     ecut=    55.00 Ry     beta= 0.50
     Davidson diagonalization with overlap
     ethr =  1.58E-11,  avg # of iterations =  3.0

     total cpu time spent up to now is        8.5 secs

     total energy              =     -49.78159103 Ry
     estimated scf accuracy    <          6.6E-10 Ry

     iteration # 13     ecut=    55.00 Ry     beta= 0.50
     Davidson diagonalization with overlap
     ethr =  4.71E-12,  avg # of iterations =  2.0

     total cpu time spent up to now is        9.2 secs

     total energy              =     -49.78159103 Ry
     estimated scf accuracy    <          4.5E-11 Ry

     iteration # 14     ecut=    55.00 Ry     beta= 0.50
     Davidson diagonalization with overlap
     ethr =  3.18E-13,  avg # of iterations =  5.0

     total cpu time spent up to now is        9.9 secs

     total energy              =     -49.78159103 Ry
     estimated scf accuracy    <          2.4E-11 Ry

     iteration # 15     ecut=    55.00 Ry     beta= 0.50
     Davidson diagonalization with overlap
     ethr =  1.73E-13,  avg # of iterations =  2.0

     total cpu time spent up to now is       10.5 secs

     total energy              =     -49.78159103 Ry
     estimated scf accuracy    <          2.0E-12 Ry

     iteration # 16     ecut=    55.00 Ry     beta= 0.50
     Davidson diagonalization with overlap
     ethr =  1.00E-13,  avg # of iterations =  1.0

     total cpu time spent up to now is       11.0 secs

     End of self-consistent calculation

          k = 0.0000 0.0000 0.0000 ( 27590 PWs)   bands (ev):

   -25.4001 -16.7528 -12.4064 -10.4438 -10.1525  -7.8206  -6.1292

     highest occupied level (ev):    -6.1292

!    total energy              =     -49.78159103 Ry
     estimated scf accuracy    <          5.8E-14 Ry

     The total energy is the sum of the following terms:
     one-electron contribution =    -119.41749446 Ry
     hartree contribution      =      62.00165469 Ry
     xc contribution           =     -15.47824756 Ry
     ewald contribution        =      23.11249630 Ry

     convergence has been achieved in  16 iterations

     Forces acting on atoms (cartesian axes, Ry/au):

     atom    1 type  1   force =     0.00365876   -0.01056345    0.00082091
     atom    2 type  2   force =    -0.01125450   -0.03560529   -0.00153675
     atom    3 type  3   force =     0.00002205   -0.00363386    0.00159423
     atom    4 type  3   force =    -0.00037635    0.00746019   -0.01072910
     atom    5 type  3   force =    -0.00296256    0.00519420    0.00992389
     atom    6 type  3   force =     0.01091260    0.03714821   -0.00007317

     Total force =     0.057813     Total SCF correction =     0.000000

     Writing output data file ./Methanol.save/

     init_run     :      0.73s CPU      0.79s WALL (       1 calls)
     electrons    :      9.85s CPU     10.17s WALL (       1 calls)
     forces       :      0.49s CPU      0.51s WALL (       1 calls)

     Called by init_run:
     wfcinit      :      0.13s CPU      0.13s WALL (       1 calls)
     potinit      :      0.37s CPU      0.40s WALL (       1 calls)
     hinit0       :      0.16s CPU      0.18s WALL (       1 calls)

     Called by electrons:
     c_bands      :      4.02s CPU      4.06s WALL (      16 calls)
     sum_band     :      1.35s CPU      1.36s WALL (      16 calls)
     v_of_rho     :      3.66s CPU      3.93s WALL (      17 calls)
     mix_rho      :      0.92s CPU      0.93s WALL (      16 calls)

     Called by c_bands:
     init_us_2    :      0.11s CPU      0.11s WALL (      33 calls)
     regterg      :      3.89s CPU      3.93s WALL (      16 calls)

     Called by *egterg:
     rdiaghg      :      0.02s CPU      0.02s WALL (      55 calls)
     h_psi        :      3.63s CPU      3.67s WALL (      56 calls)
     g_psi        :      0.01s CPU      0.01s WALL (      39 calls)

     Called by h_psi:
     h_psi:calbec :      0.28s CPU      0.28s WALL (      56 calls)
     vloc_psi     :      3.10s CPU      3.14s WALL (      56 calls)
     add_vuspsi   :      0.23s CPU      0.23s WALL (      56 calls)

     General routines
     calbec       :      0.30s CPU      0.31s WALL (      60 calls)
     fft          :      2.30s CPU      2.38s WALL (     144 calls)
     ffts         :      0.25s CPU      0.25s WALL (      16 calls)
     fftw         :      2.85s CPU      2.87s WALL (     452 calls)

     Parallel routines

     PWSCF        :     11.18s CPU     11.59s WALL


   This run was terminated on:   5:47:10  24May2021            

=------------------------------------------------------------------------------=
   JOB DONE.
=------------------------------------------------------------------------------=
