
     Program PWSCF v.6.7GPU starts on 24May2021 at  5:46:31 

     This program is part of the open-source Quantum ESPRESSO suite
     for quantum simulation of materials; please cite
         "P. Giannozzi et al., J. Phys.:Condens. Matter 21 395502 (2009);
         "P. Giannozzi et al., J. Phys.:Condens. Matter 29 465901 (2017);
         "P. Giannozzi et al., J. Chem. Phys. 152 154105 (2020);
          URL http://www.quantum-espresso.org", 
     in publications or presentations arising from this work. More details at
     http://www.quantum-espresso.org/quote

     Parallel version (MPI), running on     4 processors

     MPI processes distributed on     1 nodes
     R & G space division:  proc/nbgrp/npool/nimage =       4
     Waiting for input...
     Reading input from standard input
     Message from routine read_cards :
     DEPRECATED: no units specified in CELL_PARAMETERS card

     Current dimensions of program PWSCF are:
     Max number of different atomic species (ntypx) = 10
     Max number of k-points (npk) =  40000
     Max angular momentum in pseudopotentials (lmaxx) =  3

     gamma-point specific algorithms are used

     Subspace diagonalization in iterative solution of the eigenvalue problem:
     one sub-group per band group will be used
     scalapack distributed-memory algorithm (size of sub-group:  2*  2 procs)


     Parallelization info
     --------------------
     sticks:   dense  smooth     PW     G-vecs:    dense   smooth      PW
     Min        1271    1271    317                68355    68355    8565
     Max        1276    1276    322                68358    68358    8568
     Sum        5097    5097   1281               273425   273425   34265

     Using Slab Decomposition



     bravais-lattice index     =            0
     lattice parameter (alat)  =      20.0000  a.u.
     unit-cell volume          =    8000.0000 (a.u.)^3
     number of atoms/cell      =            6
     number of atomic types    =            3
     number of electrons       =        14.00
     number of Kohn-Sham states=            7
     kinetic-energy cutoff     =      40.0000  Ry
     charge density cutoff     =     160.0000  Ry
     scf convergence threshold =      1.0E-12
     mixing beta               =       0.5000
     number of iterations used =            8  plain     mixing
     Exchange-correlation= PBE
                           (   1   4   3   4   0   0   0)

     celldm(1)=  20.000000  celldm(2)=   0.000000  celldm(3)=   0.000000
     celldm(4)=   0.000000  celldm(5)=   0.000000  celldm(6)=   0.000000

     crystal axes: (cart. coord. in units of alat)
               a(1) = (   1.000000   0.000000   0.000000 )  
               a(2) = (   0.000000   1.000000   0.000000 )  
               a(3) = (   0.000000   0.000000   1.000000 )  

     reciprocal axes: (cart. coord. in units 2 pi/alat)
               b(1) = (  1.000000  0.000000  0.000000 )  
               b(2) = (  0.000000  1.000000  0.000000 )  
               b(3) = (  0.000000  0.000000  1.000000 )  


     PseudoPot. # 1 for C  read from file:
     /home/ciga/builds/pseudo_potentials/C.upf
     MD5 check sum: d80ec9912146af6c4c1760317d1f95e9
     Pseudo is Norm-conserving + core correction, Zval =  4.0
     Generated using ONCVPSP code by D. R. Hamann
     Using radial grid of 1248 points,  4 beta functions with: 
                l(1) =   0
                l(2) =   0
                l(3) =   1
                l(4) =   1

     PseudoPot. # 2 for O  read from file:
     /home/ciga/builds/pseudo_potentials/O.upf
     MD5 check sum: e357869f07dbe8d608261c380baea405
     Pseudo is Norm-conserving + core correction, Zval =  6.0
     Generated using ONCVPSP code by D. R. Hamann
     Using radial grid of  936 points,  5 beta functions with: 
                l(1) =   0
                l(2) =   0
                l(3) =   1
                l(4) =   1
                l(5) =   2

     PseudoPot. # 3 for H  read from file:
     /home/ciga/builds/pseudo_potentials/H.upf
     MD5 check sum: 418cee52d0c413ae40802e6cc37ab9e3
     Pseudo is Norm-conserving, Zval =  1.0
     Generated using ONCVPSP code by D. R. Hamann
     Using radial grid of 1166 points,  3 beta functions with: 
                l(1) =   0
                l(2) =   0
                l(3) =   1

     atomic species   valence    mass     pseudopotential
        C              4.00    12.01070     C ( 1.00)
        O              6.00    15.99940     O ( 1.00)
        H              1.00     1.00794     H ( 1.00)

     No symmetry found



   Cartesian axes

     site n.     atom                  positions (alat units)
         1           C   tau(   1) = (  -0.0682939  -0.0006651   0.0000000  )
         2           O   tau(   2) = (   0.0662998   0.0011046   0.0000000  )
         3           H   tau(   3) = (  -0.0966111  -0.1000789   0.0000000  )
         4           H   tau(   4) = (  -0.1098222   0.0430083  -0.0839355  )
         5           H   tau(   5) = (  -0.1084954   0.0442451   0.0839288  )
         6           H   tau(   6) = (   0.0935635   0.0861400   0.0000000  )

     number of k points=     1
                       cart. coord. in units 2pi/alat
        k(    1) = (   0.0000000   0.0000000   0.0000000), wk =   2.0000000

     Dense  grid:   136713 G-vectors     FFT dimensions: (  81,  81,  81)

     Estimated max dynamical RAM per process >      32.89 MB

     Estimated total dynamical RAM >     131.57 MB

     Check: negative core charge=   -0.000042

     Initial potential from superposition of free atoms

     starting charge   13.99991, renormalised to   14.00000

     negative rho (up, down):  1.322E-02 0.000E+00
     Starting wfcs are   12 randomized atomic wfcs

     total cpu time spent up to now is        0.6 secs

     Self-consistent Calculation

     iteration #  1     ecut=    40.00 Ry     beta= 0.50
     Davidson diagonalization with overlap
     ethr =  1.00E-02,  avg # of iterations =  2.0

     negative rho (up, down):  6.427E-03 0.000E+00

     total cpu time spent up to now is        1.0 secs

     total energy              =     -49.49470711 Ry
     estimated scf accuracy    <       0.57057247 Ry

     iteration #  2     ecut=    40.00 Ry     beta= 0.50
     Davidson diagonalization with overlap
     ethr =  4.08E-03,  avg # of iterations =  2.0

     negative rho (up, down):  3.086E-03 0.000E+00

     total cpu time spent up to now is        1.4 secs

     total energy              =     -49.58105059 Ry
     estimated scf accuracy    <       0.05784192 Ry

     iteration #  3     ecut=    40.00 Ry     beta= 0.50
     Davidson diagonalization with overlap
     ethr =  4.13E-04,  avg # of iterations =  1.0

     negative rho (up, down):  5.300E-04 0.000E+00

     total cpu time spent up to now is        1.7 secs

     total energy              =     -49.58097648 Ry
     estimated scf accuracy    <       0.01048048 Ry

     iteration #  4     ecut=    40.00 Ry     beta= 0.50
     Davidson diagonalization with overlap
     ethr =  7.49E-05,  avg # of iterations =  2.0

     negative rho (up, down):  1.124E-04 0.000E+00

     total cpu time spent up to now is        2.1 secs

     total energy              =     -49.58193084 Ry
     estimated scf accuracy    <       0.00062471 Ry

     iteration #  5     ecut=    40.00 Ry     beta= 0.50
     Davidson diagonalization with overlap
     ethr =  4.46E-06,  avg # of iterations =  2.0

     negative rho (up, down):  1.260E-05 0.000E+00

     total cpu time spent up to now is        2.5 secs

     total energy              =     -49.58209087 Ry
     estimated scf accuracy    <       0.00003917 Ry

     iteration #  6     ecut=    40.00 Ry     beta= 0.50
     Davidson diagonalization with overlap
     ethr =  2.80E-07,  avg # of iterations =  2.0

     negative rho (up, down):  5.284E-07 0.000E+00

     total cpu time spent up to now is        2.9 secs

     total energy              =     -49.58209856 Ry
     estimated scf accuracy    <       0.00000678 Ry

     iteration #  7     ecut=    40.00 Ry     beta= 0.50
     Davidson diagonalization with overlap
     ethr =  4.84E-08,  avg # of iterations =  2.0

     negative rho (up, down):  1.222E-08 0.000E+00

     total cpu time spent up to now is        3.2 secs

     total energy              =     -49.58209934 Ry
     estimated scf accuracy    <       0.00000120 Ry

     iteration #  8     ecut=    40.00 Ry     beta= 0.50
     Davidson diagonalization with overlap
     ethr =  8.57E-09,  avg # of iterations =  3.0

     total cpu time spent up to now is        3.7 secs

     total energy              =     -49.58209970 Ry
     estimated scf accuracy    <       0.00000031 Ry

     iteration #  9     ecut=    40.00 Ry     beta= 0.50
     Davidson diagonalization with overlap
     ethr =  2.20E-09,  avg # of iterations =  2.0

     total cpu time spent up to now is        4.0 secs

     total energy              =     -49.58209975 Ry
     estimated scf accuracy    <       0.00000002 Ry

     iteration # 10     ecut=    40.00 Ry     beta= 0.50
     Davidson diagonalization with overlap
     ethr =  1.41E-10,  avg # of iterations =  3.0

     total cpu time spent up to now is        4.4 secs

     total energy              =     -49.58209976 Ry
     estimated scf accuracy    <          9.7E-09 Ry

     iteration # 11     ecut=    40.00 Ry     beta= 0.50
     Davidson diagonalization with overlap
     ethr =  6.93E-11,  avg # of iterations =  2.0

     total cpu time spent up to now is        4.8 secs

     total energy              =     -49.58209976 Ry
     estimated scf accuracy    <          2.8E-09 Ry

     iteration # 12     ecut=    40.00 Ry     beta= 0.50
     Davidson diagonalization with overlap
     ethr =  1.99E-11,  avg # of iterations =  3.0

     total cpu time spent up to now is        5.2 secs

     total energy              =     -49.58209976 Ry
     estimated scf accuracy    <          1.0E-09 Ry

     iteration # 13     ecut=    40.00 Ry     beta= 0.50
     Davidson diagonalization with overlap
     ethr =  7.14E-12,  avg # of iterations =  2.0

     total cpu time spent up to now is        5.6 secs

     total energy              =     -49.58209976 Ry
     estimated scf accuracy    <          1.7E-11 Ry

     iteration # 14     ecut=    40.00 Ry     beta= 0.50
     Davidson diagonalization with overlap
     ethr =  1.25E-13,  avg # of iterations =  3.0

     total cpu time spent up to now is        6.0 secs

     total energy              =     -49.58209976 Ry
     estimated scf accuracy    <          2.4E-12 Ry

     iteration # 15     ecut=    40.00 Ry     beta= 0.50
     Davidson diagonalization with overlap
     ethr =  1.00E-13,  avg # of iterations =  1.0

     total cpu time spent up to now is        6.3 secs

     End of self-consistent calculation

          k = 0.0000 0.0000 0.0000 ( 17133 PWs)   bands (ev):

   -25.8507 -16.8769 -12.4932 -10.4858 -10.2092  -7.9014  -6.1618

     highest occupied level (ev):    -6.1618

!    total energy              =     -49.58209976 Ry
     estimated scf accuracy    <          2.8E-13 Ry

     The total energy is the sum of the following terms:
     one-electron contribution =    -118.94223151 Ry
     hartree contribution      =      61.65780806 Ry
     xc contribution           =     -15.41017261 Ry
     ewald contribution        =      23.11249631 Ry

     convergence has been achieved in  15 iterations

     Forces acting on atoms (cartesian axes, Ry/au):

     atom    1 type  1   force =    -0.02080628   -0.00864326    0.00081712
     atom    2 type  2   force =     0.01000291   -0.05961035   -0.00153970
     atom    3 type  3   force =     0.00045001   -0.00346995    0.00158247
     atom    4 type  3   force =    -0.00146491    0.00744029   -0.01060944
     atom    5 type  3   force =    -0.00406843    0.00519477    0.00982690
     atom    6 type  3   force =     0.01588670    0.05908850   -0.00007736

     Total force =     0.090735     Total SCF correction =     0.000001

     Writing output data file ./Methanol.save/

     init_run     :      0.47s CPU      0.52s WALL (       1 calls)
     electrons    :      5.56s CPU      5.71s WALL (       1 calls)
     forces       :      0.32s CPU      0.34s WALL (       1 calls)

     Called by init_run:
     wfcinit      :      0.08s CPU      0.08s WALL (       1 calls)
     potinit      :      0.24s CPU      0.26s WALL (       1 calls)
     hinit0       :      0.12s CPU      0.13s WALL (       1 calls)

     Called by electrons:
     c_bands      :      2.26s CPU      2.28s WALL (      15 calls)
     sum_band     :      0.76s CPU      0.77s WALL (      15 calls)
     v_of_rho     :      2.15s CPU      2.28s WALL (      16 calls)
     mix_rho      :      0.44s CPU      0.44s WALL (      15 calls)

     Called by c_bands:
     init_us_2    :      0.06s CPU      0.07s WALL (      31 calls)
     regterg      :      2.18s CPU      2.21s WALL (      15 calls)

     Called by *egterg:
     rdiaghg      :      0.02s CPU      0.02s WALL (      47 calls)
     h_psi        :      2.06s CPU      2.08s WALL (      48 calls)
     g_psi        :      0.00s CPU      0.00s WALL (      32 calls)

     Called by h_psi:
     h_psi:calbec :      0.17s CPU      0.17s WALL (      48 calls)
     vloc_psi     :      1.76s CPU      1.78s WALL (      48 calls)
     add_vuspsi   :      0.13s CPU      0.13s WALL (      48 calls)

     General routines
     calbec       :      0.18s CPU      0.18s WALL (      52 calls)
     fft          :      1.29s CPU      1.34s WALL (     136 calls)
     ffts         :      0.14s CPU      0.14s WALL (      15 calls)
     fftw         :      1.65s CPU      1.67s WALL (     406 calls)

     Parallel routines

     PWSCF        :      6.48s CPU      6.69s WALL


   This run was terminated on:   5:46:38  24May2021            

=------------------------------------------------------------------------------=
   JOB DONE.
=------------------------------------------------------------------------------=
