
     Program PWSCF v.6.7GPU starts on 24May2021 at  5:49: 5 

     This program is part of the open-source Quantum ESPRESSO suite
     for quantum simulation of materials; please cite
         "P. Giannozzi et al., J. Phys.:Condens. Matter 21 395502 (2009);
         "P. Giannozzi et al., J. Phys.:Condens. Matter 29 465901 (2017);
         "P. Giannozzi et al., J. Chem. Phys. 152 154105 (2020);
          URL http://www.quantum-espresso.org", 
     in publications or presentations arising from this work. More details at
     http://www.quantum-espresso.org/quote

     Parallel version (MPI), running on     4 processors

     MPI processes distributed on     1 nodes
     R & G space division:  proc/nbgrp/npool/nimage =       4
     Waiting for input...
     Reading input from standard input
     Message from routine read_cards :
     DEPRECATED: no units specified in CELL_PARAMETERS card

     Current dimensions of program PWSCF are:
     Max number of different atomic species (ntypx) = 10
     Max number of k-points (npk) =  40000
     Max angular momentum in pseudopotentials (lmaxx) =  3

     gamma-point specific algorithms are used

     Subspace diagonalization in iterative solution of the eigenvalue problem:
     one sub-group per band group will be used
     scalapack distributed-memory algorithm (size of sub-group:  2*  2 procs)


     Parallelization info
     --------------------
     sticks:   dense  smooth     PW     G-vecs:    dense   smooth      PW
     Min        2862    2862    716               230578   230578   28824
     Max        2863    2863    718               230586   230586   28830
     Sum       11449   11449   2869               922329   922329  115313

     Using Slab Decomposition



     bravais-lattice index     =            0
     lattice parameter (alat)  =      20.0000  a.u.
     unit-cell volume          =    8000.0000 (a.u.)^3
     number of atoms/cell      =            6
     number of atomic types    =            3
     number of electrons       =        14.00
     number of Kohn-Sham states=            7
     kinetic-energy cutoff     =      90.0000  Ry
     charge density cutoff     =     360.0000  Ry
     scf convergence threshold =      1.0E-12
     mixing beta               =       0.5000
     number of iterations used =            8  plain     mixing
     Exchange-correlation= PBE
                           (   1   4   3   4   0   0   0)

     celldm(1)=  20.000000  celldm(2)=   0.000000  celldm(3)=   0.000000
     celldm(4)=   0.000000  celldm(5)=   0.000000  celldm(6)=   0.000000

     crystal axes: (cart. coord. in units of alat)
               a(1) = (   1.000000   0.000000   0.000000 )  
               a(2) = (   0.000000   1.000000   0.000000 )  
               a(3) = (   0.000000   0.000000   1.000000 )  

     reciprocal axes: (cart. coord. in units 2 pi/alat)
               b(1) = (  1.000000  0.000000  0.000000 )  
               b(2) = (  0.000000  1.000000  0.000000 )  
               b(3) = (  0.000000  0.000000  1.000000 )  


     PseudoPot. # 1 for C  read from file:
     /home/ciga/builds/pseudo_potentials/C.upf
     MD5 check sum: d80ec9912146af6c4c1760317d1f95e9
     Pseudo is Norm-conserving + core correction, Zval =  4.0
     Generated using ONCVPSP code by D. R. Hamann
     Using radial grid of 1248 points,  4 beta functions with: 
                l(1) =   0
                l(2) =   0
                l(3) =   1
                l(4) =   1

     PseudoPot. # 2 for O  read from file:
     /home/ciga/builds/pseudo_potentials/O.upf
     MD5 check sum: e357869f07dbe8d608261c380baea405
     Pseudo is Norm-conserving + core correction, Zval =  6.0
     Generated using ONCVPSP code by D. R. Hamann
     Using radial grid of  936 points,  5 beta functions with: 
                l(1) =   0
                l(2) =   0
                l(3) =   1
                l(4) =   1
                l(5) =   2

     PseudoPot. # 3 for H  read from file:
     /home/ciga/builds/pseudo_potentials/H.upf
     MD5 check sum: 418cee52d0c413ae40802e6cc37ab9e3
     Pseudo is Norm-conserving, Zval =  1.0
     Generated using ONCVPSP code by D. R. Hamann
     Using radial grid of 1166 points,  3 beta functions with: 
                l(1) =   0
                l(2) =   0
                l(3) =   1

     atomic species   valence    mass     pseudopotential
        C              4.00    12.01070     C ( 1.00)
        O              6.00    15.99940     O ( 1.00)
        H              1.00     1.00794     H ( 1.00)

     No symmetry found



   Cartesian axes

     site n.     atom                  positions (alat units)
         1           C   tau(   1) = (  -0.0682939  -0.0006651   0.0000000  )
         2           O   tau(   2) = (   0.0662998   0.0011046   0.0000000  )
         3           H   tau(   3) = (  -0.0966111  -0.1000789   0.0000000  )
         4           H   tau(   4) = (  -0.1098222   0.0430083  -0.0839355  )
         5           H   tau(   5) = (  -0.1084954   0.0442451   0.0839288  )
         6           H   tau(   6) = (   0.0935635   0.0861400   0.0000000  )

     number of k points=     1
                       cart. coord. in units 2pi/alat
        k(    1) = (   0.0000000   0.0000000   0.0000000), wk =   2.0000000

     Dense  grid:   461165 G-vectors     FFT dimensions: ( 125, 125, 125)

     Estimated max dynamical RAM per process >     109.29 MB

     Estimated total dynamical RAM >     437.18 MB

     Initial potential from superposition of free atoms

     starting charge   13.99991, renormalised to   14.00000

     negative rho (up, down):  2.804E-05 0.000E+00
     Starting wfcs are   12 randomized atomic wfcs

     total cpu time spent up to now is        1.7 secs

     Self-consistent Calculation

     iteration #  1     ecut=    90.00 Ry     beta= 0.50
     Davidson diagonalization with overlap
     ethr =  1.00E-02,  avg # of iterations =  2.0

     negative rho (up, down):  4.929E-06 0.000E+00

     total cpu time spent up to now is        3.1 secs

     total energy              =     -49.68670691 Ry
     estimated scf accuracy    <       0.67915791 Ry

     iteration #  2     ecut=    90.00 Ry     beta= 0.50
     Davidson diagonalization with overlap
     ethr =  4.85E-03,  avg # of iterations =  2.0

     negative rho (up, down):  1.485E-06 0.000E+00

     total cpu time spent up to now is        4.5 secs

     total energy              =     -49.80863576 Ry
     estimated scf accuracy    <       0.06735898 Ry

     iteration #  3     ecut=    90.00 Ry     beta= 0.50
     Davidson diagonalization with overlap
     ethr =  4.81E-04,  avg # of iterations =  2.0

     negative rho (up, down):  1.514E-07 0.000E+00

     total cpu time spent up to now is        5.8 secs

     total energy              =     -49.80948233 Ry
     estimated scf accuracy    <       0.01197467 Ry

     iteration #  4     ecut=    90.00 Ry     beta= 0.50
     Davidson diagonalization with overlap
     ethr =  8.55E-05,  avg # of iterations =  2.0

     negative rho (up, down):  2.042E-08 0.000E+00

     total cpu time spent up to now is        7.1 secs

     total energy              =     -49.81066520 Ry
     estimated scf accuracy    <       0.00104678 Ry

     iteration #  5     ecut=    90.00 Ry     beta= 0.50
     Davidson diagonalization with overlap
     ethr =  7.48E-06,  avg # of iterations =  2.0

     total cpu time spent up to now is        8.5 secs

     total energy              =     -49.81090810 Ry
     estimated scf accuracy    <       0.00005015 Ry

     iteration #  6     ecut=    90.00 Ry     beta= 0.50
     Davidson diagonalization with overlap
     ethr =  3.58E-07,  avg # of iterations =  2.0

     total cpu time spent up to now is       10.0 secs

     total energy              =     -49.81091791 Ry
     estimated scf accuracy    <       0.00001086 Ry

     iteration #  7     ecut=    90.00 Ry     beta= 0.50
     Davidson diagonalization with overlap
     ethr =  7.76E-08,  avg # of iterations =  2.0

     total cpu time spent up to now is       11.4 secs

     total energy              =     -49.81091933 Ry
     estimated scf accuracy    <       0.00000089 Ry

     iteration #  8     ecut=    90.00 Ry     beta= 0.50
     Davidson diagonalization with overlap
     ethr =  6.36E-09,  avg # of iterations =  3.0

     total cpu time spent up to now is       12.9 secs

     total energy              =     -49.81091968 Ry
     estimated scf accuracy    <       0.00000053 Ry

     iteration #  9     ecut=    90.00 Ry     beta= 0.50
     Davidson diagonalization with overlap
     ethr =  3.80E-09,  avg # of iterations =  2.0

     total cpu time spent up to now is       14.3 secs

     total energy              =     -49.81091976 Ry
     estimated scf accuracy    <       0.00000001 Ry

     iteration # 10     ecut=    90.00 Ry     beta= 0.50
     Davidson diagonalization with overlap
     ethr =  1.02E-10,  avg # of iterations =  5.0

     total cpu time spent up to now is       16.0 secs

     total energy              =     -49.81091977 Ry
     estimated scf accuracy    <       0.00000001 Ry

     iteration # 11     ecut=    90.00 Ry     beta= 0.50
     Davidson diagonalization with overlap
     ethr =  9.02E-11,  avg # of iterations =  2.0

     total cpu time spent up to now is       17.4 secs

     total energy              =     -49.81091977 Ry
     estimated scf accuracy    <          2.2E-09 Ry

     iteration # 12     ecut=    90.00 Ry     beta= 0.50
     Davidson diagonalization with overlap
     ethr =  1.57E-11,  avg # of iterations =  3.0

     total cpu time spent up to now is       19.0 secs

     total energy              =     -49.81091977 Ry
     estimated scf accuracy    <          7.8E-10 Ry

     iteration # 13     ecut=    90.00 Ry     beta= 0.50
     Davidson diagonalization with overlap
     ethr =  5.56E-12,  avg # of iterations =  2.0

     total cpu time spent up to now is       20.4 secs

     total energy              =     -49.81091977 Ry
     estimated scf accuracy    <          4.9E-11 Ry

     iteration # 14     ecut=    90.00 Ry     beta= 0.50
     Davidson diagonalization with overlap
     ethr =  3.51E-13,  avg # of iterations =  3.0

     total cpu time spent up to now is       21.9 secs

     total energy              =     -49.81091977 Ry
     estimated scf accuracy    <          3.8E-12 Ry

     iteration # 15     ecut=    90.00 Ry     beta= 0.50
     Davidson diagonalization with overlap
     ethr =  1.00E-13,  avg # of iterations =  4.0

     total cpu time spent up to now is       23.4 secs

     total energy              =     -49.81091977 Ry
     estimated scf accuracy    <          5.7E-12 Ry

     iteration # 16     ecut=    90.00 Ry     beta= 0.50
     Davidson diagonalization with overlap
     ethr =  1.00E-13,  avg # of iterations =  1.0

     total cpu time spent up to now is       24.5 secs

     End of self-consistent calculation

          k = 0.0000 0.0000 0.0000 ( 57657 PWs)   bands (ev):

   -25.3407 -16.7336 -12.3936 -10.4428 -10.1451  -7.8110  -6.1279

     highest occupied level (ev):    -6.1279

!    total energy              =     -49.81091977 Ry
     estimated scf accuracy    <          8.5E-13 Ry

     The total energy is the sum of the following terms:
     one-electron contribution =    -119.47681348 Ry
     hartree contribution      =      62.04430784 Ry
     xc contribution           =     -15.49091046 Ry
     ewald contribution        =      23.11249632 Ry

     convergence has been achieved in  16 iterations

     Forces acting on atoms (cartesian axes, Ry/au):

     atom    1 type  1   force =     0.00214751   -0.01096047    0.00081765
     atom    2 type  2   force =    -0.01177061   -0.03627756   -0.00154393
     atom    3 type  3   force =     0.00027381   -0.00251666    0.00159283
     atom    4 type  3   force =     0.00016547    0.00702081   -0.00981618
     atom    5 type  3   force =    -0.00245166    0.00474648    0.00902203
     atom    6 type  3   force =     0.01163548    0.03798740   -0.00007241

     Total force =     0.058527     Total SCF correction =     0.000001

     Writing output data file ./Methanol.save/

     init_run     :      1.46s CPU      1.59s WALL (       1 calls)
     electrons    :     22.25s CPU     22.81s WALL (       1 calls)
     forces       :      0.96s CPU      1.00s WALL (       1 calls)

     Called by init_run:
     wfcinit      :      0.34s CPU      0.34s WALL (       1 calls)
     potinit      :      0.65s CPU      0.72s WALL (       1 calls)
     hinit0       :      0.29s CPU      0.32s WALL (       1 calls)

     Called by electrons:
     c_bands      :     10.32s CPU     10.41s WALL (      16 calls)
     sum_band     :      3.16s CPU      3.18s WALL (      16 calls)
     v_of_rho     :      6.90s CPU      7.36s WALL (      17 calls)
     mix_rho      :      2.05s CPU      2.09s WALL (      16 calls)

     Called by c_bands:
     init_us_2    :      0.24s CPU      0.24s WALL (      33 calls)
     regterg      :     10.05s CPU     10.13s WALL (      16 calls)

     Called by *egterg:
     rdiaghg      :      0.03s CPU      0.03s WALL (      55 calls)
     h_psi        :      9.44s CPU      9.52s WALL (      56 calls)
     g_psi        :      0.02s CPU      0.02s WALL (      39 calls)

     Called by h_psi:
     h_psi:calbec :      0.59s CPU      0.59s WALL (      56 calls)
     vloc_psi     :      8.33s CPU      8.41s WALL (      56 calls)
     add_vuspsi   :      0.47s CPU      0.48s WALL (      56 calls)

     General routines
     calbec       :      0.64s CPU      0.64s WALL (      60 calls)
     fft          :      4.99s CPU      5.11s WALL (     144 calls)
     ffts         :      0.56s CPU      0.57s WALL (      16 calls)
     fftw         :      7.91s CPU      7.98s WALL (     446 calls)

     Parallel routines

     PWSCF        :     24.81s CPU     25.55s WALL


   This run was terminated on:   5:49:30  24May2021            

=------------------------------------------------------------------------------=
   JOB DONE.
=------------------------------------------------------------------------------=
