
     Program PWSCF v.6.7GPU starts on 24May2021 at  5:48: 0 

     This program is part of the open-source Quantum ESPRESSO suite
     for quantum simulation of materials; please cite
         "P. Giannozzi et al., J. Phys.:Condens. Matter 21 395502 (2009);
         "P. Giannozzi et al., J. Phys.:Condens. Matter 29 465901 (2017);
         "P. Giannozzi et al., J. Chem. Phys. 152 154105 (2020);
          URL http://www.quantum-espresso.org", 
     in publications or presentations arising from this work. More details at
     http://www.quantum-espresso.org/quote

     Parallel version (MPI), running on     4 processors

     MPI processes distributed on     1 nodes
     R & G space division:  proc/nbgrp/npool/nimage =       4
     Waiting for input...
     Reading input from standard input
     Message from routine read_cards :
     DEPRECATED: no units specified in CELL_PARAMETERS card

     Current dimensions of program PWSCF are:
     Max number of different atomic species (ntypx) = 10
     Max number of k-points (npk) =  40000
     Max angular momentum in pseudopotentials (lmaxx) =  3

     gamma-point specific algorithms are used

     Subspace diagonalization in iterative solution of the eigenvalue problem:
     one sub-group per band group will be used
     scalapack distributed-memory algorithm (size of sub-group:  2*  2 procs)


     Parallelization info
     --------------------
     sticks:   dense  smooth     PW     G-vecs:    dense   smooth      PW
     Min        2386    2386    595               175366   175366   21912
     Max        2388    2388    598               175372   175372   21918
     Sum        9549    9549   2385               701475   701475   87655

     Using Slab Decomposition



     bravais-lattice index     =            0
     lattice parameter (alat)  =      20.0000  a.u.
     unit-cell volume          =    8000.0000 (a.u.)^3
     number of atoms/cell      =            6
     number of atomic types    =            3
     number of electrons       =        14.00
     number of Kohn-Sham states=            7
     kinetic-energy cutoff     =      75.0000  Ry
     charge density cutoff     =     300.0000  Ry
     scf convergence threshold =      1.0E-12
     mixing beta               =       0.5000
     number of iterations used =            8  plain     mixing
     Exchange-correlation= PBE
                           (   1   4   3   4   0   0   0)

     celldm(1)=  20.000000  celldm(2)=   0.000000  celldm(3)=   0.000000
     celldm(4)=   0.000000  celldm(5)=   0.000000  celldm(6)=   0.000000

     crystal axes: (cart. coord. in units of alat)
               a(1) = (   1.000000   0.000000   0.000000 )  
               a(2) = (   0.000000   1.000000   0.000000 )  
               a(3) = (   0.000000   0.000000   1.000000 )  

     reciprocal axes: (cart. coord. in units 2 pi/alat)
               b(1) = (  1.000000  0.000000  0.000000 )  
               b(2) = (  0.000000  1.000000  0.000000 )  
               b(3) = (  0.000000  0.000000  1.000000 )  


     PseudoPot. # 1 for C  read from file:
     /home/ciga/builds/pseudo_potentials/C.upf
     MD5 check sum: d80ec9912146af6c4c1760317d1f95e9
     Pseudo is Norm-conserving + core correction, Zval =  4.0
     Generated using ONCVPSP code by D. R. Hamann
     Using radial grid of 1248 points,  4 beta functions with: 
                l(1) =   0
                l(2) =   0
                l(3) =   1
                l(4) =   1

     PseudoPot. # 2 for O  read from file:
     /home/ciga/builds/pseudo_potentials/O.upf
     MD5 check sum: e357869f07dbe8d608261c380baea405
     Pseudo is Norm-conserving + core correction, Zval =  6.0
     Generated using ONCVPSP code by D. R. Hamann
     Using radial grid of  936 points,  5 beta functions with: 
                l(1) =   0
                l(2) =   0
                l(3) =   1
                l(4) =   1
                l(5) =   2

     PseudoPot. # 3 for H  read from file:
     /home/ciga/builds/pseudo_potentials/H.upf
     MD5 check sum: 418cee52d0c413ae40802e6cc37ab9e3
     Pseudo is Norm-conserving, Zval =  1.0
     Generated using ONCVPSP code by D. R. Hamann
     Using radial grid of 1166 points,  3 beta functions with: 
                l(1) =   0
                l(2) =   0
                l(3) =   1

     atomic species   valence    mass     pseudopotential
        C              4.00    12.01070     C ( 1.00)
        O              6.00    15.99940     O ( 1.00)
        H              1.00     1.00794     H ( 1.00)

     No symmetry found



   Cartesian axes

     site n.     atom                  positions (alat units)
         1           C   tau(   1) = (  -0.0682939  -0.0006651   0.0000000  )
         2           O   tau(   2) = (   0.0662998   0.0011046   0.0000000  )
         3           H   tau(   3) = (  -0.0966111  -0.1000789   0.0000000  )
         4           H   tau(   4) = (  -0.1098222   0.0430083  -0.0839355  )
         5           H   tau(   5) = (  -0.1084954   0.0442451   0.0839288  )
         6           H   tau(   6) = (   0.0935635   0.0861400   0.0000000  )

     number of k points=     1
                       cart. coord. in units 2pi/alat
        k(    1) = (   0.0000000   0.0000000   0.0000000), wk =   2.0000000

     Dense  grid:   350738 G-vectors     FFT dimensions: ( 120, 120, 120)

     Estimated max dynamical RAM per process >      87.18 MB

     Estimated total dynamical RAM >     348.71 MB

     Initial potential from superposition of free atoms

     starting charge   13.99991, renormalised to   14.00000

     negative rho (up, down):  9.084E-05 0.000E+00
     Starting wfcs are   12 randomized atomic wfcs

     total cpu time spent up to now is        1.4 secs

     Self-consistent Calculation

     iteration #  1     ecut=    75.00 Ry     beta= 0.50
     Davidson diagonalization with overlap
     ethr =  1.00E-02,  avg # of iterations =  2.0

     negative rho (up, down):  3.039E-05 0.000E+00

     total cpu time spent up to now is        2.5 secs

     total energy              =     -49.68534478 Ry
     estimated scf accuracy    <       0.68021675 Ry

     iteration #  2     ecut=    75.00 Ry     beta= 0.50
     Davidson diagonalization with overlap
     ethr =  4.86E-03,  avg # of iterations =  2.0

     negative rho (up, down):  1.250E-05 0.000E+00

     total cpu time spent up to now is        3.6 secs

     total energy              =     -49.80798330 Ry
     estimated scf accuracy    <       0.06789198 Ry

     iteration #  3     ecut=    75.00 Ry     beta= 0.50
     Davidson diagonalization with overlap
     ethr =  4.85E-04,  avg # of iterations =  2.0

     negative rho (up, down):  1.868E-06 0.000E+00

     total cpu time spent up to now is        4.6 secs

     total energy              =     -49.80887926 Ry
     estimated scf accuracy    <       0.01203428 Ry

     iteration #  4     ecut=    75.00 Ry     beta= 0.50
     Davidson diagonalization with overlap
     ethr =  8.60E-05,  avg # of iterations =  2.0

     negative rho (up, down):  3.174E-07 0.000E+00

     total cpu time spent up to now is        5.7 secs

     total energy              =     -49.81007871 Ry
     estimated scf accuracy    <       0.00104961 Ry

     iteration #  5     ecut=    75.00 Ry     beta= 0.50
     Davidson diagonalization with overlap
     ethr =  7.50E-06,  avg # of iterations =  2.0

     negative rho (up, down):  1.350E-08 0.000E+00

     total cpu time spent up to now is        6.8 secs

     total energy              =     -49.81032170 Ry
     estimated scf accuracy    <       0.00004828 Ry

     iteration #  6     ecut=    75.00 Ry     beta= 0.50
     Davidson diagonalization with overlap
     ethr =  3.45E-07,  avg # of iterations =  2.0

     total cpu time spent up to now is        8.0 secs

     total energy              =     -49.81033119 Ry
     estimated scf accuracy    <       0.00000996 Ry

     iteration #  7     ecut=    75.00 Ry     beta= 0.50
     Davidson diagonalization with overlap
     ethr =  7.12E-08,  avg # of iterations =  2.0

     total cpu time spent up to now is        9.1 secs

     total energy              =     -49.81033252 Ry
     estimated scf accuracy    <       0.00000088 Ry

     iteration #  8     ecut=    75.00 Ry     beta= 0.50
     Davidson diagonalization with overlap
     ethr =  6.29E-09,  avg # of iterations =  3.0

     total cpu time spent up to now is       10.3 secs

     total energy              =     -49.81033286 Ry
     estimated scf accuracy    <       0.00000056 Ry

     iteration #  9     ecut=    75.00 Ry     beta= 0.50
     Davidson diagonalization with overlap
     ethr =  4.02E-09,  avg # of iterations =  2.0

     total cpu time spent up to now is       11.5 secs

     total energy              =     -49.81033295 Ry
     estimated scf accuracy    <       0.00000001 Ry

     iteration # 10     ecut=    75.00 Ry     beta= 0.50
     Davidson diagonalization with overlap
     ethr =  9.39E-11,  avg # of iterations =  5.0

     total cpu time spent up to now is       12.8 secs

     total energy              =     -49.81033296 Ry
     estimated scf accuracy    <       0.00000001 Ry

     iteration # 11     ecut=    75.00 Ry     beta= 0.50
     Davidson diagonalization with overlap
     ethr =  8.16E-11,  avg # of iterations =  2.0

     total cpu time spent up to now is       14.0 secs

     total energy              =     -49.81033296 Ry
     estimated scf accuracy    <          2.3E-09 Ry

     iteration # 12     ecut=    75.00 Ry     beta= 0.50
     Davidson diagonalization with overlap
     ethr =  1.63E-11,  avg # of iterations =  3.0

     total cpu time spent up to now is       15.2 secs

     total energy              =     -49.81033296 Ry
     estimated scf accuracy    <          7.1E-10 Ry

     iteration # 13     ecut=    75.00 Ry     beta= 0.50
     Davidson diagonalization with overlap
     ethr =  5.10E-12,  avg # of iterations =  2.0

     total cpu time spent up to now is       16.3 secs

     total energy              =     -49.81033296 Ry
     estimated scf accuracy    <          5.1E-11 Ry

     iteration # 14     ecut=    75.00 Ry     beta= 0.50
     Davidson diagonalization with overlap
     ethr =  3.63E-13,  avg # of iterations =  5.0

     total cpu time spent up to now is       17.7 secs

     total energy              =     -49.81033296 Ry
     estimated scf accuracy    <          2.4E-11 Ry

     iteration # 15     ecut=    75.00 Ry     beta= 0.50
     Davidson diagonalization with overlap
     ethr =  1.72E-13,  avg # of iterations =  2.0

     total cpu time spent up to now is       18.8 secs

     total energy              =     -49.81033296 Ry
     estimated scf accuracy    <          3.0E-12 Ry

     iteration # 16     ecut=    75.00 Ry     beta= 0.50
     Davidson diagonalization with overlap
     ethr =  1.00E-13,  avg # of iterations =  2.0

     total cpu time spent up to now is       19.7 secs

     End of self-consistent calculation

          k = 0.0000 0.0000 0.0000 ( 43828 PWs)   bands (ev):

   -25.3417 -16.7342 -12.3940 -10.4429 -10.1453  -7.8112  -6.1280

     highest occupied level (ev):    -6.1280

!    total energy              =     -49.81033296 Ry
     estimated scf accuracy    <          9.6E-14 Ry

     The total energy is the sum of the following terms:
     one-electron contribution =    -119.47599603 Ry
     hartree contribution      =      62.04364530 Ry
     xc contribution           =     -15.49047856 Ry
     ewald contribution        =      23.11249632 Ry

     convergence has been achieved in  16 iterations

     Forces acting on atoms (cartesian axes, Ry/au):

     atom    1 type  1   force =     0.00215576   -0.01095217    0.00081772
     atom    2 type  2   force =    -0.01168961   -0.03632623   -0.00154425
     atom    3 type  3   force =     0.00024600   -0.00257153    0.00159273
     atom    4 type  3   force =     0.00013409    0.00705332   -0.00986620
     atom    5 type  3   force =    -0.00248309    0.00478000    0.00907246
     atom    6 type  3   force =     0.01163685    0.03801660   -0.00007246

     Total force =     0.058585     Total SCF correction =     0.000000

     Writing output data file ./Methanol.save/

     init_run     :      1.22s CPU      1.29s WALL (       1 calls)
     electrons    :     17.72s CPU     18.33s WALL (       1 calls)
     forces       :      0.79s CPU      0.82s WALL (       1 calls)

     Called by init_run:
     wfcinit      :      0.26s CPU      0.26s WALL (       1 calls)
     potinit      :      0.56s CPU      0.61s WALL (       1 calls)
     hinit0       :      0.25s CPU      0.26s WALL (       1 calls)

     Called by electrons:
     c_bands      :      7.91s CPU      7.98s WALL (      16 calls)
     sum_band     :      2.56s CPU      2.59s WALL (      16 calls)
     v_of_rho     :      5.78s CPU      6.29s WALL (      17 calls)
     mix_rho      :      1.63s CPU      1.65s WALL (      16 calls)

     Called by c_bands:
     init_us_2    :      0.18s CPU      0.18s WALL (      33 calls)
     regterg      :      7.70s CPU      7.77s WALL (      16 calls)

     Called by *egterg:
     rdiaghg      :      0.02s CPU      0.03s WALL (      56 calls)
     h_psi        :      7.28s CPU      7.35s WALL (      57 calls)
     g_psi        :      0.02s CPU      0.02s WALL (      40 calls)

     Called by h_psi:
     h_psi:calbec :      0.44s CPU      0.44s WALL (      57 calls)
     vloc_psi     :      6.45s CPU      6.51s WALL (      57 calls)
     add_vuspsi   :      0.36s CPU      0.36s WALL (      57 calls)

     General routines
     calbec       :      0.48s CPU      0.48s WALL (      61 calls)
     fft          :      4.11s CPU      4.21s WALL (     144 calls)
     ffts         :      0.44s CPU      0.44s WALL (      16 calls)
     fftw         :      6.03s CPU      6.08s WALL (     450 calls)

     Parallel routines

     PWSCF        :     19.85s CPU     20.58s WALL


   This run was terminated on:   5:48:21  24May2021            

=------------------------------------------------------------------------------=
   JOB DONE.
=------------------------------------------------------------------------------=
