
     Program PWSCF v.6.7GPU starts on 24May2021 at  5:48:21 

     This program is part of the open-source Quantum ESPRESSO suite
     for quantum simulation of materials; please cite
         "P. Giannozzi et al., J. Phys.:Condens. Matter 21 395502 (2009);
         "P. Giannozzi et al., J. Phys.:Condens. Matter 29 465901 (2017);
         "P. Giannozzi et al., J. Chem. Phys. 152 154105 (2020);
          URL http://www.quantum-espresso.org", 
     in publications or presentations arising from this work. More details at
     http://www.quantum-espresso.org/quote

     Parallel version (MPI), running on     4 processors

     MPI processes distributed on     1 nodes
     R & G space division:  proc/nbgrp/npool/nimage =       4
     Waiting for input...
     Reading input from standard input
     Message from routine read_cards :
     DEPRECATED: no units specified in CELL_PARAMETERS card

     Current dimensions of program PWSCF are:
     Max number of different atomic species (ntypx) = 10
     Max number of k-points (npk) =  40000
     Max angular momentum in pseudopotentials (lmaxx) =  3

     gamma-point specific algorithms are used

     Subspace diagonalization in iterative solution of the eigenvalue problem:
     one sub-group per band group will be used
     scalapack distributed-memory algorithm (size of sub-group:  2*  2 procs)


     Parallelization info
     --------------------
     sticks:   dense  smooth     PW     G-vecs:    dense   smooth      PW
     Min        2543    2543    637               193371   193371   24241
     Max        2548    2548    642               193374   193374   24244
     Sum       10185   10185   2561               773489   773489   96969

     Using Slab Decomposition



     bravais-lattice index     =            0
     lattice parameter (alat)  =      20.0000  a.u.
     unit-cell volume          =    8000.0000 (a.u.)^3
     number of atoms/cell      =            6
     number of atomic types    =            3
     number of electrons       =        14.00
     number of Kohn-Sham states=            7
     kinetic-energy cutoff     =      80.0000  Ry
     charge density cutoff     =     320.0000  Ry
     scf convergence threshold =      1.0E-12
     mixing beta               =       0.5000
     number of iterations used =            8  plain     mixing
     Exchange-correlation= PBE
                           (   1   4   3   4   0   0   0)

     celldm(1)=  20.000000  celldm(2)=   0.000000  celldm(3)=   0.000000
     celldm(4)=   0.000000  celldm(5)=   0.000000  celldm(6)=   0.000000

     crystal axes: (cart. coord. in units of alat)
               a(1) = (   1.000000   0.000000   0.000000 )  
               a(2) = (   0.000000   1.000000   0.000000 )  
               a(3) = (   0.000000   0.000000   1.000000 )  

     reciprocal axes: (cart. coord. in units 2 pi/alat)
               b(1) = (  1.000000  0.000000  0.000000 )  
               b(2) = (  0.000000  1.000000  0.000000 )  
               b(3) = (  0.000000  0.000000  1.000000 )  


     PseudoPot. # 1 for C  read from file:
     /home/ciga/builds/pseudo_potentials/C.upf
     MD5 check sum: d80ec9912146af6c4c1760317d1f95e9
     Pseudo is Norm-conserving + core correction, Zval =  4.0
     Generated using ONCVPSP code by D. R. Hamann
     Using radial grid of 1248 points,  4 beta functions with: 
                l(1) =   0
                l(2) =   0
                l(3) =   1
                l(4) =   1

     PseudoPot. # 2 for O  read from file:
     /home/ciga/builds/pseudo_potentials/O.upf
     MD5 check sum: e357869f07dbe8d608261c380baea405
     Pseudo is Norm-conserving + core correction, Zval =  6.0
     Generated using ONCVPSP code by D. R. Hamann
     Using radial grid of  936 points,  5 beta functions with: 
                l(1) =   0
                l(2) =   0
                l(3) =   1
                l(4) =   1
                l(5) =   2

     PseudoPot. # 3 for H  read from file:
     /home/ciga/builds/pseudo_potentials/H.upf
     MD5 check sum: 418cee52d0c413ae40802e6cc37ab9e3
     Pseudo is Norm-conserving, Zval =  1.0
     Generated using ONCVPSP code by D. R. Hamann
     Using radial grid of 1166 points,  3 beta functions with: 
                l(1) =   0
                l(2) =   0
                l(3) =   1

     atomic species   valence    mass     pseudopotential
        C              4.00    12.01070     C ( 1.00)
        O              6.00    15.99940     O ( 1.00)
        H              1.00     1.00794     H ( 1.00)

     No symmetry found



   Cartesian axes

     site n.     atom                  positions (alat units)
         1           C   tau(   1) = (  -0.0682939  -0.0006651   0.0000000  )
         2           O   tau(   2) = (   0.0662998   0.0011046   0.0000000  )
         3           H   tau(   3) = (  -0.0966111  -0.1000789   0.0000000  )
         4           H   tau(   4) = (  -0.1098222   0.0430083  -0.0839355  )
         5           H   tau(   5) = (  -0.1084954   0.0442451   0.0839288  )
         6           H   tau(   6) = (   0.0935635   0.0861400   0.0000000  )

     number of k points=     1
                       cart. coord. in units 2pi/alat
        k(    1) = (   0.0000000   0.0000000   0.0000000), wk =   2.0000000

     Dense  grid:   386745 G-vectors     FFT dimensions: ( 120, 120, 120)

     Estimated max dynamical RAM per process >      92.86 MB

     Estimated total dynamical RAM >     371.43 MB

     Initial potential from superposition of free atoms

     starting charge   13.99991, renormalised to   14.00000

     negative rho (up, down):  5.366E-05 0.000E+00
     Starting wfcs are   12 randomized atomic wfcs

     total cpu time spent up to now is        1.5 secs

     Self-consistent Calculation

     iteration #  1     ecut=    80.00 Ry     beta= 0.50
     Davidson diagonalization with overlap
     ethr =  1.00E-02,  avg # of iterations =  2.0

     negative rho (up, down):  1.520E-05 0.000E+00

     total cpu time spent up to now is        2.6 secs

     total energy              =     -49.68598597 Ry
     estimated scf accuracy    <       0.68032364 Ry

     iteration #  2     ecut=    80.00 Ry     beta= 0.50
     Davidson diagonalization with overlap
     ethr =  4.86E-03,  avg # of iterations =  2.0

     negative rho (up, down):  5.648E-06 0.000E+00

     total cpu time spent up to now is        3.8 secs

     total energy              =     -49.80847392 Ry
     estimated scf accuracy    <       0.06758759 Ry

     iteration #  3     ecut=    80.00 Ry     beta= 0.50
     Davidson diagonalization with overlap
     ethr =  4.83E-04,  avg # of iterations =  2.0

     negative rho (up, down):  7.305E-07 0.000E+00

     total cpu time spent up to now is        4.8 secs

     total energy              =     -49.80933846 Ry
     estimated scf accuracy    <       0.01201601 Ry

     iteration #  4     ecut=    80.00 Ry     beta= 0.50
     Davidson diagonalization with overlap
     ethr =  8.58E-05,  avg # of iterations =  2.0

     negative rho (up, down):  1.133E-07 0.000E+00

     total cpu time spent up to now is        5.9 secs

     total energy              =     -49.81053327 Ry
     estimated scf accuracy    <       0.00104208 Ry

     iteration #  5     ecut=    80.00 Ry     beta= 0.50
     Davidson diagonalization with overlap
     ethr =  7.44E-06,  avg # of iterations =  2.0

     total cpu time spent up to now is        7.1 secs

     total energy              =     -49.81077470 Ry
     estimated scf accuracy    <       0.00004819 Ry

     iteration #  6     ecut=    80.00 Ry     beta= 0.50
     Davidson diagonalization with overlap
     ethr =  3.44E-07,  avg # of iterations =  2.0

     total cpu time spent up to now is        8.3 secs

     total energy              =     -49.81078422 Ry
     estimated scf accuracy    <       0.00001014 Ry

     iteration #  7     ecut=    80.00 Ry     beta= 0.50
     Davidson diagonalization with overlap
     ethr =  7.25E-08,  avg # of iterations =  2.0

     total cpu time spent up to now is        9.5 secs

     total energy              =     -49.81078561 Ry
     estimated scf accuracy    <       0.00000084 Ry

     iteration #  8     ecut=    80.00 Ry     beta= 0.50
     Davidson diagonalization with overlap
     ethr =  5.97E-09,  avg # of iterations =  3.0

     total cpu time spent up to now is       10.7 secs

     total energy              =     -49.81078594 Ry
     estimated scf accuracy    <       0.00000055 Ry

     iteration #  9     ecut=    80.00 Ry     beta= 0.50
     Davidson diagonalization with overlap
     ethr =  3.89E-09,  avg # of iterations =  2.0

     total cpu time spent up to now is       11.9 secs

     total energy              =     -49.81078602 Ry
     estimated scf accuracy    <       0.00000001 Ry

     iteration # 10     ecut=    80.00 Ry     beta= 0.50
     Davidson diagonalization with overlap
     ethr =  9.27E-11,  avg # of iterations =  5.0

     total cpu time spent up to now is       13.3 secs

     total energy              =     -49.81078603 Ry
     estimated scf accuracy    <       0.00000001 Ry

     iteration # 11     ecut=    80.00 Ry     beta= 0.50
     Davidson diagonalization with overlap
     ethr =  8.38E-11,  avg # of iterations =  2.0

     total cpu time spent up to now is       14.5 secs

     total energy              =     -49.81078603 Ry
     estimated scf accuracy    <          2.3E-09 Ry

     iteration # 12     ecut=    80.00 Ry     beta= 0.50
     Davidson diagonalization with overlap
     ethr =  1.63E-11,  avg # of iterations =  3.0

     total cpu time spent up to now is       15.8 secs

     total energy              =     -49.81078603 Ry
     estimated scf accuracy    <          7.2E-10 Ry

     iteration # 13     ecut=    80.00 Ry     beta= 0.50
     Davidson diagonalization with overlap
     ethr =  5.16E-12,  avg # of iterations =  2.0

     total cpu time spent up to now is       16.9 secs

     total energy              =     -49.81078603 Ry
     estimated scf accuracy    <          4.7E-11 Ry

     iteration # 14     ecut=    80.00 Ry     beta= 0.50
     Davidson diagonalization with overlap
     ethr =  3.39E-13,  avg # of iterations =  5.0

     total cpu time spent up to now is       18.4 secs

     total energy              =     -49.81078603 Ry
     estimated scf accuracy    <          2.3E-11 Ry

     iteration # 15     ecut=    80.00 Ry     beta= 0.50
     Davidson diagonalization with overlap
     ethr =  1.65E-13,  avg # of iterations =  2.0

     total cpu time spent up to now is       19.5 secs

     total energy              =     -49.81078603 Ry
     estimated scf accuracy    <          2.8E-12 Ry

     iteration # 16     ecut=    80.00 Ry     beta= 0.50
     Davidson diagonalization with overlap
     ethr =  1.00E-13,  avg # of iterations =  2.0

     total cpu time spent up to now is       20.4 secs

     End of self-consistent calculation

          k = 0.0000 0.0000 0.0000 ( 48485 PWs)   bands (ev):

   -25.3409 -16.7337 -12.3937 -10.4428 -10.1452  -7.8110  -6.1279

     highest occupied level (ev):    -6.1279

!    total energy              =     -49.81078603 Ry
     estimated scf accuracy    <          1.0E-13 Ry

     The total energy is the sum of the following terms:
     one-electron contribution =    -119.47668629 Ry
     hartree contribution      =      62.04418841 Ry
     xc contribution           =     -15.49078447 Ry
     ewald contribution        =      23.11249632 Ry

     convergence has been achieved in  16 iterations

     Forces acting on atoms (cartesian axes, Ry/au):

     atom    1 type  1   force =     0.00212593   -0.01095398    0.00081766
     atom    2 type  2   force =    -0.01170197   -0.03632780   -0.00154397
     atom    3 type  3   force =     0.00025980   -0.00252599    0.00159284
     atom    4 type  3   force =     0.00015034    0.00703429   -0.00982888
     atom    5 type  3   force =    -0.00246671    0.00476007    0.00903477
     atom    6 type  3   force =     0.01163261    0.03801341   -0.00007243

     Total force =     0.058566     Total SCF correction =     0.000000

     Writing output data file ./Methanol.save/

     init_run     :      1.27s CPU      1.34s WALL (       1 calls)
     electrons    :     18.50s CPU     19.02s WALL (       1 calls)
     forces       :      0.81s CPU      0.84s WALL (       1 calls)

     Called by init_run:
     wfcinit      :      0.26s CPU      0.28s WALL (       1 calls)
     potinit      :      0.58s CPU      0.62s WALL (       1 calls)
     hinit0       :      0.27s CPU      0.28s WALL (       1 calls)

     Called by electrons:
     c_bands      :      8.32s CPU      8.39s WALL (      16 calls)
     sum_band     :      2.65s CPU      2.68s WALL (      16 calls)
     v_of_rho     :      5.93s CPU      6.35s WALL (      17 calls)
     mix_rho      :      1.75s CPU      1.79s WALL (      16 calls)

     Called by c_bands:
     init_us_2    :      0.19s CPU      0.20s WALL (      33 calls)
     regterg      :      8.10s CPU      8.17s WALL (      16 calls)

     Called by *egterg:
     rdiaghg      :      0.02s CPU      0.02s WALL (      56 calls)
     h_psi        :      7.60s CPU      7.67s WALL (      57 calls)
     g_psi        :      0.02s CPU      0.02s WALL (      40 calls)

     Called by h_psi:
     h_psi:calbec :      0.48s CPU      0.48s WALL (      57 calls)
     vloc_psi     :      6.67s CPU      6.74s WALL (      57 calls)
     add_vuspsi   :      0.40s CPU      0.40s WALL (      57 calls)

     General routines
     calbec       :      0.52s CPU      0.52s WALL (      61 calls)
     fft          :      4.29s CPU      4.38s WALL (     144 calls)
     ffts         :      0.46s CPU      0.46s WALL (      16 calls)
     fftw         :      6.24s CPU      6.29s WALL (     450 calls)

     Parallel routines

     PWSCF        :     20.71s CPU     21.36s WALL


   This run was terminated on:   5:48:42  24May2021            

=------------------------------------------------------------------------------=
   JOB DONE.
=------------------------------------------------------------------------------=
