
     Program PWSCF v.6.7GPU starts on 24May2021 at  5:47:11 

     This program is part of the open-source Quantum ESPRESSO suite
     for quantum simulation of materials; please cite
         "P. Giannozzi et al., J. Phys.:Condens. Matter 21 395502 (2009);
         "P. Giannozzi et al., J. Phys.:Condens. Matter 29 465901 (2017);
         "P. Giannozzi et al., J. Chem. Phys. 152 154105 (2020);
          URL http://www.quantum-espresso.org", 
     in publications or presentations arising from this work. More details at
     http://www.quantum-espresso.org/quote

     Parallel version (MPI), running on     4 processors

     MPI processes distributed on     1 nodes
     R & G space division:  proc/nbgrp/npool/nimage =       4
     Waiting for input...
     Reading input from standard input
     Message from routine read_cards :
     DEPRECATED: no units specified in CELL_PARAMETERS card

     Current dimensions of program PWSCF are:
     Max number of different atomic species (ntypx) = 10
     Max number of k-points (npk) =  40000
     Max angular momentum in pseudopotentials (lmaxx) =  3

     gamma-point specific algorithms are used

     Subspace diagonalization in iterative solution of the eigenvalue problem:
     one sub-group per band group will be used
     scalapack distributed-memory algorithm (size of sub-group:  2*  2 procs)


     Parallelization info
     --------------------
     sticks:   dense  smooth     PW     G-vecs:    dense   smooth      PW
     Min        1910    1910    473               125614   125614   15665
     Max        1912    1912    476               125624   125624   15668
     Sum        7645    7645   1901               502479   502479   62669

     Using Slab Decomposition



     bravais-lattice index     =            0
     lattice parameter (alat)  =      20.0000  a.u.
     unit-cell volume          =    8000.0000 (a.u.)^3
     number of atoms/cell      =            6
     number of atomic types    =            3
     number of electrons       =        14.00
     number of Kohn-Sham states=            7
     kinetic-energy cutoff     =      60.0000  Ry
     charge density cutoff     =     240.0000  Ry
     scf convergence threshold =      1.0E-12
     mixing beta               =       0.5000
     number of iterations used =            8  plain     mixing
     Exchange-correlation= PBE
                           (   1   4   3   4   0   0   0)

     celldm(1)=  20.000000  celldm(2)=   0.000000  celldm(3)=   0.000000
     celldm(4)=   0.000000  celldm(5)=   0.000000  celldm(6)=   0.000000

     crystal axes: (cart. coord. in units of alat)
               a(1) = (   1.000000   0.000000   0.000000 )  
               a(2) = (   0.000000   1.000000   0.000000 )  
               a(3) = (   0.000000   0.000000   1.000000 )  

     reciprocal axes: (cart. coord. in units 2 pi/alat)
               b(1) = (  1.000000  0.000000  0.000000 )  
               b(2) = (  0.000000  1.000000  0.000000 )  
               b(3) = (  0.000000  0.000000  1.000000 )  


     PseudoPot. # 1 for C  read from file:
     /home/ciga/builds/pseudo_potentials/C.upf
     MD5 check sum: d80ec9912146af6c4c1760317d1f95e9
     Pseudo is Norm-conserving + core correction, Zval =  4.0
     Generated using ONCVPSP code by D. R. Hamann
     Using radial grid of 1248 points,  4 beta functions with: 
                l(1) =   0
                l(2) =   0
                l(3) =   1
                l(4) =   1

     PseudoPot. # 2 for O  read from file:
     /home/ciga/builds/pseudo_potentials/O.upf
     MD5 check sum: e357869f07dbe8d608261c380baea405
     Pseudo is Norm-conserving + core correction, Zval =  6.0
     Generated using ONCVPSP code by D. R. Hamann
     Using radial grid of  936 points,  5 beta functions with: 
                l(1) =   0
                l(2) =   0
                l(3) =   1
                l(4) =   1
                l(5) =   2

     PseudoPot. # 3 for H  read from file:
     /home/ciga/builds/pseudo_potentials/H.upf
     MD5 check sum: 418cee52d0c413ae40802e6cc37ab9e3
     Pseudo is Norm-conserving, Zval =  1.0
     Generated using ONCVPSP code by D. R. Hamann
     Using radial grid of 1166 points,  3 beta functions with: 
                l(1) =   0
                l(2) =   0
                l(3) =   1

     atomic species   valence    mass     pseudopotential
        C              4.00    12.01070     C ( 1.00)
        O              6.00    15.99940     O ( 1.00)
        H              1.00     1.00794     H ( 1.00)

     No symmetry found



   Cartesian axes

     site n.     atom                  positions (alat units)
         1           C   tau(   1) = (  -0.0682939  -0.0006651   0.0000000  )
         2           O   tau(   2) = (   0.0662998   0.0011046   0.0000000  )
         3           H   tau(   3) = (  -0.0966111  -0.1000789   0.0000000  )
         4           H   tau(   4) = (  -0.1098222   0.0430083  -0.0839355  )
         5           H   tau(   5) = (  -0.1084954   0.0442451   0.0839288  )
         6           H   tau(   6) = (   0.0935635   0.0861400   0.0000000  )

     number of k points=     1
                       cart. coord. in units 2pi/alat
        k(    1) = (   0.0000000   0.0000000   0.0000000), wk =   2.0000000

     Dense  grid:   251240 G-vectors     FFT dimensions: ( 100, 100, 100)

     Estimated max dynamical RAM per process >      58.89 MB

     Estimated total dynamical RAM >     235.55 MB

     Check: negative core charge=   -0.000003

     Initial potential from superposition of free atoms

     starting charge   13.99991, renormalised to   14.00000

     negative rho (up, down):  3.510E-04 0.000E+00
     Starting wfcs are   12 randomized atomic wfcs

     total cpu time spent up to now is        1.0 secs

     Self-consistent Calculation

     iteration #  1     ecut=    60.00 Ry     beta= 0.50
     Davidson diagonalization with overlap
     ethr =  1.00E-02,  avg # of iterations =  2.0

     negative rho (up, down):  1.514E-04 0.000E+00

     total cpu time spent up to now is        1.7 secs

     total energy              =     -49.67544455 Ry
     estimated scf accuracy    <       0.67247927 Ry

     iteration #  2     ecut=    60.00 Ry     beta= 0.50
     Davidson diagonalization with overlap
     ethr =  4.80E-03,  avg # of iterations =  2.0

     negative rho (up, down):  7.203E-05 0.000E+00

     total cpu time spent up to now is        2.4 secs

     total energy              =     -49.79539053 Ry
     estimated scf accuracy    <       0.06703100 Ry

     iteration #  3     ecut=    60.00 Ry     beta= 0.50
     Davidson diagonalization with overlap
     ethr =  4.79E-04,  avg # of iterations =  2.0

     negative rho (up, down):  1.214E-05 0.000E+00

     total cpu time spent up to now is        3.0 secs

     total energy              =     -49.79625404 Ry
     estimated scf accuracy    <       0.01188687 Ry

     iteration #  4     ecut=    60.00 Ry     beta= 0.50
     Davidson diagonalization with overlap
     ethr =  8.49E-05,  avg # of iterations =  2.0

     negative rho (up, down):  1.831E-06 0.000E+00

     total cpu time spent up to now is        3.7 secs

     total energy              =     -49.79741985 Ry
     estimated scf accuracy    <       0.00101307 Ry

     iteration #  5     ecut=    60.00 Ry     beta= 0.50
     Davidson diagonalization with overlap
     ethr =  7.24E-06,  avg # of iterations =  2.0

     negative rho (up, down):  3.403E-08 0.000E+00

     total cpu time spent up to now is        4.4 secs

     total energy              =     -49.79765183 Ry
     estimated scf accuracy    <       0.00004601 Ry

     iteration #  6     ecut=    60.00 Ry     beta= 0.50
     Davidson diagonalization with overlap
     ethr =  3.29E-07,  avg # of iterations =  2.0

     total cpu time spent up to now is        5.1 secs

     total energy              =     -49.79766076 Ry
     estimated scf accuracy    <       0.00000961 Ry

     iteration #  7     ecut=    60.00 Ry     beta= 0.50
     Davidson diagonalization with overlap
     ethr =  6.86E-08,  avg # of iterations =  2.0

     total cpu time spent up to now is        5.8 secs

     total energy              =     -49.79766205 Ry
     estimated scf accuracy    <       0.00000083 Ry

     iteration #  8     ecut=    60.00 Ry     beta= 0.50
     Davidson diagonalization with overlap
     ethr =  5.93E-09,  avg # of iterations =  3.0

     total cpu time spent up to now is        6.8 secs

     total energy              =     -49.79766237 Ry
     estimated scf accuracy    <       0.00000055 Ry

     iteration #  9     ecut=    60.00 Ry     beta= 0.50
     Davidson diagonalization with overlap
     ethr =  3.93E-09,  avg # of iterations =  2.0

     total cpu time spent up to now is        7.5 secs

     total energy              =     -49.79766246 Ry
     estimated scf accuracy    <       0.00000001 Ry

     iteration # 10     ecut=    60.00 Ry     beta= 0.50
     Davidson diagonalization with overlap
     ethr =  9.59E-11,  avg # of iterations =  5.0

     total cpu time spent up to now is        8.3 secs

     total energy              =     -49.79766246 Ry
     estimated scf accuracy    <       0.00000001 Ry

     iteration # 11     ecut=    60.00 Ry     beta= 0.50
     Davidson diagonalization with overlap
     ethr =  8.92E-11,  avg # of iterations =  2.0

     total cpu time spent up to now is        9.0 secs

     total energy              =     -49.79766246 Ry
     estimated scf accuracy    <          2.3E-09 Ry

     iteration # 12     ecut=    60.00 Ry     beta= 0.50
     Davidson diagonalization with overlap
     ethr =  1.61E-11,  avg # of iterations =  3.0

     total cpu time spent up to now is        9.8 secs

     total energy              =     -49.79766247 Ry
     estimated scf accuracy    <          7.5E-10 Ry

     iteration # 13     ecut=    60.00 Ry     beta= 0.50
     Davidson diagonalization with overlap
     ethr =  5.35E-12,  avg # of iterations =  2.0

     total cpu time spent up to now is       10.5 secs

     total energy              =     -49.79766247 Ry
     estimated scf accuracy    <          4.9E-11 Ry

     iteration # 14     ecut=    60.00 Ry     beta= 0.50
     Davidson diagonalization with overlap
     ethr =  3.53E-13,  avg # of iterations =  5.0

     total cpu time spent up to now is       11.3 secs

     total energy              =     -49.79766247 Ry
     estimated scf accuracy    <          2.5E-11 Ry

     iteration # 15     ecut=    60.00 Ry     beta= 0.50
     Davidson diagonalization with overlap
     ethr =  1.77E-13,  avg # of iterations =  2.0

     total cpu time spent up to now is       12.0 secs

     total energy              =     -49.79766247 Ry
     estimated scf accuracy    <          3.4E-12 Ry

     iteration # 16     ecut=    60.00 Ry     beta= 0.50
     Davidson diagonalization with overlap
     ethr =  1.00E-13,  avg # of iterations =  2.0

     total cpu time spent up to now is       12.6 secs

     End of self-consistent calculation

          k = 0.0000 0.0000 0.0000 ( 31335 PWs)   bands (ev):

   -25.3665 -16.7430 -12.3990 -10.4432 -10.1480  -7.8151  -6.1286

     highest occupied level (ev):    -6.1286

!    total energy              =     -49.79766247 Ry
     estimated scf accuracy    <          1.6E-13 Ry

     The total energy is the sum of the following terms:
     one-electron contribution =    -119.45157253 Ry
     hartree contribution      =      62.02611243 Ry
     xc contribution           =     -15.48469868 Ry
     ewald contribution        =      23.11249632 Ry

     convergence has been achieved in  16 iterations

     Forces acting on atoms (cartesian axes, Ry/au):

     atom    1 type  1   force =     0.00458467   -0.01074297    0.00081924
     atom    2 type  2   force =    -0.01276974   -0.03568924   -0.00154079
     atom    3 type  3   force =     0.00007559   -0.00333569    0.00159341
     atom    4 type  3   force =    -0.00026242    0.00735017   -0.01051744
     atom    5 type  3   force =    -0.00286253    0.00508126    0.00971808
     atom    6 type  3   force =     0.01123442    0.03733647   -0.00007250

     Total force =     0.058338     Total SCF correction =     0.000001

     Writing output data file ./Methanol.save/

     init_run     :      0.83s CPU      0.87s WALL (       1 calls)
     electrons    :     11.36s CPU     11.66s WALL (       1 calls)
     forces       :      0.55s CPU      0.58s WALL (       1 calls)

     Called by init_run:
     wfcinit      :      0.15s CPU      0.15s WALL (       1 calls)
     potinit      :      0.41s CPU      0.43s WALL (       1 calls)
     hinit0       :      0.19s CPU      0.19s WALL (       1 calls)

     Called by electrons:
     c_bands      :      4.69s CPU      4.75s WALL (      16 calls)
     sum_band     :      1.56s CPU      1.57s WALL (      16 calls)
     v_of_rho     :      4.12s CPU      4.34s WALL (      17 calls)
     mix_rho      :      1.08s CPU      1.10s WALL (      16 calls)

     Called by c_bands:
     init_us_2    :      0.13s CPU      0.13s WALL (      33 calls)
     regterg      :      4.54s CPU      4.59s WALL (      16 calls)

     Called by *egterg:
     rdiaghg      :      0.03s CPU      0.03s WALL (      56 calls)
     h_psi        :      4.22s CPU      4.28s WALL (      57 calls)
     g_psi        :      0.01s CPU      0.01s WALL (      40 calls)

     Called by h_psi:
     h_psi:calbec :      0.33s CPU      0.33s WALL (      57 calls)
     vloc_psi     :      3.61s CPU      3.66s WALL (      57 calls)
     add_vuspsi   :      0.26s CPU      0.26s WALL (      57 calls)

     General routines
     calbec       :      0.35s CPU      0.35s WALL (      61 calls)
     fft          :      2.57s CPU      2.63s WALL (     144 calls)
     ffts         :      0.27s CPU      0.28s WALL (      16 calls)
     fftw         :      3.38s CPU      3.42s WALL (     452 calls)

     Parallel routines

     PWSCF        :     12.85s CPU     13.25s WALL


   This run was terminated on:   5:47:24  24May2021            

=------------------------------------------------------------------------------=
   JOB DONE.
=------------------------------------------------------------------------------=
