
     Program PWSCF v.6.7GPU starts on 24May2021 at  5:46:22 

     This program is part of the open-source Quantum ESPRESSO suite
     for quantum simulation of materials; please cite
         "P. Giannozzi et al., J. Phys.:Condens. Matter 21 395502 (2009);
         "P. Giannozzi et al., J. Phys.:Condens. Matter 29 465901 (2017);
         "P. Giannozzi et al., J. Chem. Phys. 152 154105 (2020);
          URL http://www.quantum-espresso.org", 
     in publications or presentations arising from this work. More details at
     http://www.quantum-espresso.org/quote

     Parallel version (MPI), running on     4 processors

     MPI processes distributed on     1 nodes
     R & G space division:  proc/nbgrp/npool/nimage =       4
     Waiting for input...
     Reading input from standard input
     Message from routine read_cards :
     DEPRECATED: no units specified in CELL_PARAMETERS card

     Current dimensions of program PWSCF are:
     Max number of different atomic species (ntypx) = 10
     Max number of k-points (npk) =  40000
     Max angular momentum in pseudopotentials (lmaxx) =  3

     gamma-point specific algorithms are used

     Subspace diagonalization in iterative solution of the eigenvalue problem:
     one sub-group per band group will be used
     scalapack distributed-memory algorithm (size of sub-group:  2*  2 procs)


     Parallelization info
     --------------------
     sticks:   dense  smooth     PW     G-vecs:    dense   smooth      PW
     Min         951     951    236                44375    44375    5524
     Max         954     954    238                44382    44382    5534
     Sum        3809    3809    949               177509   177509   22119

     Using Slab Decomposition



     bravais-lattice index     =            0
     lattice parameter (alat)  =      20.0000  a.u.
     unit-cell volume          =    8000.0000 (a.u.)^3
     number of atoms/cell      =            6
     number of atomic types    =            3
     number of electrons       =        14.00
     number of Kohn-Sham states=            7
     kinetic-energy cutoff     =      30.0000  Ry
     charge density cutoff     =     120.0000  Ry
     scf convergence threshold =      1.0E-12
     mixing beta               =       0.5000
     number of iterations used =            8  plain     mixing
     Exchange-correlation= PBE
                           (   1   4   3   4   0   0   0)

     celldm(1)=  20.000000  celldm(2)=   0.000000  celldm(3)=   0.000000
     celldm(4)=   0.000000  celldm(5)=   0.000000  celldm(6)=   0.000000

     crystal axes: (cart. coord. in units of alat)
               a(1) = (   1.000000   0.000000   0.000000 )  
               a(2) = (   0.000000   1.000000   0.000000 )  
               a(3) = (   0.000000   0.000000   1.000000 )  

     reciprocal axes: (cart. coord. in units 2 pi/alat)
               b(1) = (  1.000000  0.000000  0.000000 )  
               b(2) = (  0.000000  1.000000  0.000000 )  
               b(3) = (  0.000000  0.000000  1.000000 )  


     PseudoPot. # 1 for C  read from file:
     /home/ciga/builds/pseudo_potentials/C.upf
     MD5 check sum: d80ec9912146af6c4c1760317d1f95e9
     Pseudo is Norm-conserving + core correction, Zval =  4.0
     Generated using ONCVPSP code by D. R. Hamann
     Using radial grid of 1248 points,  4 beta functions with: 
                l(1) =   0
                l(2) =   0
                l(3) =   1
                l(4) =   1

     PseudoPot. # 2 for O  read from file:
     /home/ciga/builds/pseudo_potentials/O.upf
     MD5 check sum: e357869f07dbe8d608261c380baea405
     Pseudo is Norm-conserving + core correction, Zval =  6.0
     Generated using ONCVPSP code by D. R. Hamann
     Using radial grid of  936 points,  5 beta functions with: 
                l(1) =   0
                l(2) =   0
                l(3) =   1
                l(4) =   1
                l(5) =   2

     PseudoPot. # 3 for H  read from file:
     /home/ciga/builds/pseudo_potentials/H.upf
     MD5 check sum: 418cee52d0c413ae40802e6cc37ab9e3
     Pseudo is Norm-conserving, Zval =  1.0
     Generated using ONCVPSP code by D. R. Hamann
     Using radial grid of 1166 points,  3 beta functions with: 
                l(1) =   0
                l(2) =   0
                l(3) =   1

     atomic species   valence    mass     pseudopotential
        C              4.00    12.01070     C ( 1.00)
        O              6.00    15.99940     O ( 1.00)
        H              1.00     1.00794     H ( 1.00)

     No symmetry found



   Cartesian axes

     site n.     atom                  positions (alat units)
         1           C   tau(   1) = (  -0.0682939  -0.0006651   0.0000000  )
         2           O   tau(   2) = (   0.0662998   0.0011046   0.0000000  )
         3           H   tau(   3) = (  -0.0966111  -0.1000789   0.0000000  )
         4           H   tau(   4) = (  -0.1098222   0.0430083  -0.0839355  )
         5           H   tau(   5) = (  -0.1084954   0.0442451   0.0839288  )
         6           H   tau(   6) = (   0.0935635   0.0861400   0.0000000  )

     number of k points=     1
                       cart. coord. in units 2pi/alat
        k(    1) = (   0.0000000   0.0000000   0.0000000), wk =   2.0000000

     Dense  grid:    88755 G-vectors     FFT dimensions: (  72,  72,  72)

     Estimated max dynamical RAM per process >      22.10 MB

     Estimated total dynamical RAM >      88.38 MB

     Check: negative core charge=   -0.000114

     Initial potential from superposition of free atoms

     starting charge   13.99991, renormalised to   14.00000

     negative rho (up, down):  7.661E-02 0.000E+00
     Starting wfcs are   12 randomized atomic wfcs

     total cpu time spent up to now is        0.5 secs

     Self-consistent Calculation

     iteration #  1     ecut=    30.00 Ry     beta= 0.50
     Davidson diagonalization with overlap
     ethr =  1.00E-02,  avg # of iterations =  2.0

     negative rho (up, down):  3.734E-02 0.000E+00

     total cpu time spent up to now is        0.7 secs

     total energy              =     -49.07630819 Ry
     estimated scf accuracy    <       0.44616183 Ry

     iteration #  2     ecut=    30.00 Ry     beta= 0.50
     Davidson diagonalization with overlap
     ethr =  3.19E-03,  avg # of iterations =  2.0

     negative rho (up, down):  1.511E-02 0.000E+00

     total cpu time spent up to now is        0.9 secs

     total energy              =     -49.11672246 Ry
     estimated scf accuracy    <       0.05029294 Ry

     iteration #  3     ecut=    30.00 Ry     beta= 0.50
     Davidson diagonalization with overlap
     ethr =  3.59E-04,  avg # of iterations =  1.0

     negative rho (up, down):  2.443E-03 0.000E+00

     total cpu time spent up to now is        1.1 secs

     total energy              =     -49.11643424 Ry
     estimated scf accuracy    <       0.00744026 Ry

     iteration #  4     ecut=    30.00 Ry     beta= 0.50
     Davidson diagonalization with overlap
     ethr =  5.31E-05,  avg # of iterations =  2.0

     negative rho (up, down):  5.203E-04 0.000E+00

     total cpu time spent up to now is        1.3 secs

     total energy              =     -49.11707515 Ry
     estimated scf accuracy    <       0.00015734 Ry

     iteration #  5     ecut=    30.00 Ry     beta= 0.50
     Davidson diagonalization with overlap
     ethr =  1.12E-06,  avg # of iterations =  3.0

     negative rho (up, down):  7.233E-05 0.000E+00

     total cpu time spent up to now is        1.6 secs

     total energy              =     -49.11713906 Ry
     estimated scf accuracy    <       0.00002441 Ry

     iteration #  6     ecut=    30.00 Ry     beta= 0.50
     Davidson diagonalization with overlap
     ethr =  1.74E-07,  avg # of iterations =  2.0

     negative rho (up, down):  3.698E-06 0.000E+00

     total cpu time spent up to now is        1.8 secs

     total energy              =     -49.11714020 Ry
     estimated scf accuracy    <       0.00000340 Ry

     iteration #  7     ecut=    30.00 Ry     beta= 0.50
     Davidson diagonalization with overlap
     ethr =  2.43E-08,  avg # of iterations =  2.0

     total cpu time spent up to now is        2.0 secs

     total energy              =     -49.11713941 Ry
     estimated scf accuracy    <       0.00000045 Ry

     iteration #  8     ecut=    30.00 Ry     beta= 0.50
     Davidson diagonalization with overlap
     ethr =  3.18E-09,  avg # of iterations =  3.0

     total cpu time spent up to now is        2.2 secs

     total energy              =     -49.11713929 Ry
     estimated scf accuracy    <       0.00000023 Ry

     iteration #  9     ecut=    30.00 Ry     beta= 0.50
     Davidson diagonalization with overlap
     ethr =  1.65E-09,  avg # of iterations =  2.0

     total cpu time spent up to now is        2.5 secs

     total energy              =     -49.11713933 Ry
     estimated scf accuracy    <       0.00000004 Ry

     iteration # 10     ecut=    30.00 Ry     beta= 0.50
     Davidson diagonalization with overlap
     ethr =  2.76E-10,  avg # of iterations =  2.0

     total cpu time spent up to now is        2.7 secs

     total energy              =     -49.11713933 Ry
     estimated scf accuracy    <          2.0E-09 Ry

     iteration # 11     ecut=    30.00 Ry     beta= 0.50
     Davidson diagonalization with overlap
     ethr =  1.41E-11,  avg # of iterations =  3.0

     total cpu time spent up to now is        2.9 secs

     total energy              =     -49.11713934 Ry
     estimated scf accuracy    <          1.1E-10 Ry

     iteration # 12     ecut=    30.00 Ry     beta= 0.50
     Davidson diagonalization with overlap
     ethr =  7.50E-13,  avg # of iterations =  2.0

     total cpu time spent up to now is        3.1 secs

     total energy              =     -49.11713934 Ry
     estimated scf accuracy    <          2.7E-11 Ry

     iteration # 13     ecut=    30.00 Ry     beta= 0.50
     Davidson diagonalization with overlap
     ethr =  1.96E-13,  avg # of iterations =  2.0

     total cpu time spent up to now is        3.4 secs

     total energy              =     -49.11713934 Ry
     estimated scf accuracy    <          2.1E-12 Ry

     iteration # 14     ecut=    30.00 Ry     beta= 0.50
     Davidson diagonalization with overlap
     ethr =  1.00E-13,  avg # of iterations =  2.0

     total cpu time spent up to now is        3.6 secs

     End of self-consistent calculation

          k = 0.0000 0.0000 0.0000 ( 11060 PWs)   bands (ev):

   -26.9349 -17.1017 -12.6504 -10.5679 -10.3536  -8.0599  -6.2115

     highest occupied level (ev):    -6.2115

!    total energy              =     -49.11713934 Ry
     estimated scf accuracy    <          5.6E-13 Ry

     The total energy is the sum of the following terms:
     one-electron contribution =    -117.79749996 Ry
     hartree contribution      =      60.84509036 Ry
     xc contribution           =     -15.27722603 Ry
     ewald contribution        =      23.11249630 Ry

     convergence has been achieved in  14 iterations

     Forces acting on atoms (cartesian axes, Ry/au):

     atom    1 type  1   force =     0.03202992   -0.00025399    0.00078514
     atom    2 type  2   force =    -0.03536148   -0.13150927   -0.00151905
     atom    3 type  3   force =    -0.00529567   -0.02450207    0.00158092
     atom    4 type  3   force =    -0.01078544    0.01662061   -0.02733424
     atom    5 type  3   force =    -0.01315392    0.01465355    0.02658574
     atom    6 type  3   force =     0.03256659    0.12499117   -0.00009850

     Total force =     0.197794     Total SCF correction =     0.000001

     Writing output data file ./Methanol.save/

     init_run     :      0.36s CPU      0.38s WALL (       1 calls)
     electrons    :      2.95s CPU      3.08s WALL (       1 calls)
     forces       :      0.24s CPU      0.24s WALL (       1 calls)

     Called by init_run:
     wfcinit      :      0.04s CPU      0.05s WALL (       1 calls)
     potinit      :      0.18s CPU      0.19s WALL (       1 calls)
     hinit0       :      0.11s CPU      0.12s WALL (       1 calls)

     Called by electrons:
     c_bands      :      1.16s CPU      1.17s WALL (      14 calls)
     sum_band     :      0.39s CPU      0.39s WALL (      14 calls)
     v_of_rho     :      1.23s CPU      1.34s WALL (      15 calls)
     mix_rho      :      0.21s CPU      0.22s WALL (      14 calls)

     Called by c_bands:
     init_us_2    :      0.04s CPU      0.04s WALL (      29 calls)
     regterg      :      1.11s CPU      1.12s WALL (      14 calls)

     Called by *egterg:
     rdiaghg      :      0.02s CPU      0.02s WALL (      44 calls)
     h_psi        :      1.03s CPU      1.05s WALL (      45 calls)
     g_psi        :      0.00s CPU      0.00s WALL (      30 calls)

     Called by h_psi:
     h_psi:calbec :      0.11s CPU      0.11s WALL (      45 calls)
     vloc_psi     :      0.86s CPU      0.87s WALL (      45 calls)
     add_vuspsi   :      0.07s CPU      0.07s WALL (      45 calls)

     General routines
     calbec       :      0.11s CPU      0.11s WALL (      49 calls)
     fft          :      0.64s CPU      0.67s WALL (     128 calls)
     ffts         :      0.07s CPU      0.07s WALL (      14 calls)
     fftw         :      0.78s CPU      0.79s WALL (     376 calls)

     Parallel routines

     PWSCF        :      3.66s CPU      3.82s WALL


   This run was terminated on:   5:46:26  24May2021            

=------------------------------------------------------------------------------=
   JOB DONE.
=------------------------------------------------------------------------------=
