
     Program PWSCF v.6.7GPU starts on 24May2021 at  5:47:42 

     This program is part of the open-source Quantum ESPRESSO suite
     for quantum simulation of materials; please cite
         "P. Giannozzi et al., J. Phys.:Condens. Matter 21 395502 (2009);
         "P. Giannozzi et al., J. Phys.:Condens. Matter 29 465901 (2017);
         "P. Giannozzi et al., J. Chem. Phys. 152 154105 (2020);
          URL http://www.quantum-espresso.org", 
     in publications or presentations arising from this work. More details at
     http://www.quantum-espresso.org/quote

     Parallel version (MPI), running on     4 processors

     MPI processes distributed on     1 nodes
     R & G space division:  proc/nbgrp/npool/nimage =       4
     Waiting for input...
     Reading input from standard input
     Message from routine read_cards :
     DEPRECATED: no units specified in CELL_PARAMETERS card

     Current dimensions of program PWSCF are:
     Max number of different atomic species (ntypx) = 10
     Max number of k-points (npk) =  40000
     Max angular momentum in pseudopotentials (lmaxx) =  3

     gamma-point specific algorithms are used

     Subspace diagonalization in iterative solution of the eigenvalue problem:
     one sub-group per band group will be used
     scalapack distributed-memory algorithm (size of sub-group:  2*  2 procs)


     Parallelization info
     --------------------
     sticks:   dense  smooth     PW     G-vecs:    dense   smooth      PW
     Min        2230    2230    557               158211   158211   19778
     Max        2234    2234    560               158214   158214   19781
     Sum        8929    8929   2233               632851   632851   79117

     Using Slab Decomposition



     bravais-lattice index     =            0
     lattice parameter (alat)  =      20.0000  a.u.
     unit-cell volume          =    8000.0000 (a.u.)^3
     number of atoms/cell      =            6
     number of atomic types    =            3
     number of electrons       =        14.00
     number of Kohn-Sham states=            7
     kinetic-energy cutoff     =      70.0000  Ry
     charge density cutoff     =     280.0000  Ry
     scf convergence threshold =      1.0E-12
     mixing beta               =       0.5000
     number of iterations used =            8  plain     mixing
     Exchange-correlation= PBE
                           (   1   4   3   4   0   0   0)

     celldm(1)=  20.000000  celldm(2)=   0.000000  celldm(3)=   0.000000
     celldm(4)=   0.000000  celldm(5)=   0.000000  celldm(6)=   0.000000

     crystal axes: (cart. coord. in units of alat)
               a(1) = (   1.000000   0.000000   0.000000 )  
               a(2) = (   0.000000   1.000000   0.000000 )  
               a(3) = (   0.000000   0.000000   1.000000 )  

     reciprocal axes: (cart. coord. in units 2 pi/alat)
               b(1) = (  1.000000  0.000000  0.000000 )  
               b(2) = (  0.000000  1.000000  0.000000 )  
               b(3) = (  0.000000  0.000000  1.000000 )  


     PseudoPot. # 1 for C  read from file:
     /home/ciga/builds/pseudo_potentials/C.upf
     MD5 check sum: d80ec9912146af6c4c1760317d1f95e9
     Pseudo is Norm-conserving + core correction, Zval =  4.0
     Generated using ONCVPSP code by D. R. Hamann
     Using radial grid of 1248 points,  4 beta functions with: 
                l(1) =   0
                l(2) =   0
                l(3) =   1
                l(4) =   1

     PseudoPot. # 2 for O  read from file:
     /home/ciga/builds/pseudo_potentials/O.upf
     MD5 check sum: e357869f07dbe8d608261c380baea405
     Pseudo is Norm-conserving + core correction, Zval =  6.0
     Generated using ONCVPSP code by D. R. Hamann
     Using radial grid of  936 points,  5 beta functions with: 
                l(1) =   0
                l(2) =   0
                l(3) =   1
                l(4) =   1
                l(5) =   2

     PseudoPot. # 3 for H  read from file:
     /home/ciga/builds/pseudo_potentials/H.upf
     MD5 check sum: 418cee52d0c413ae40802e6cc37ab9e3
     Pseudo is Norm-conserving, Zval =  1.0
     Generated using ONCVPSP code by D. R. Hamann
     Using radial grid of 1166 points,  3 beta functions with: 
                l(1) =   0
                l(2) =   0
                l(3) =   1

     atomic species   valence    mass     pseudopotential
        C              4.00    12.01070     C ( 1.00)
        O              6.00    15.99940     O ( 1.00)
        H              1.00     1.00794     H ( 1.00)

     No symmetry found



   Cartesian axes

     site n.     atom                  positions (alat units)
         1           C   tau(   1) = (  -0.0682939  -0.0006651   0.0000000  )
         2           O   tau(   2) = (   0.0662998   0.0011046   0.0000000  )
         3           H   tau(   3) = (  -0.0966111  -0.1000789   0.0000000  )
         4           H   tau(   4) = (  -0.1098222   0.0430083  -0.0839355  )
         5           H   tau(   5) = (  -0.1084954   0.0442451   0.0839288  )
         6           H   tau(   6) = (   0.0935635   0.0861400   0.0000000  )

     number of k points=     1
                       cart. coord. in units 2pi/alat
        k(    1) = (   0.0000000   0.0000000   0.0000000), wk =   2.0000000

     Dense  grid:   316426 G-vectors     FFT dimensions: ( 108, 108, 108)

     Estimated max dynamical RAM per process >      73.70 MB

     Estimated total dynamical RAM >     294.79 MB

     Initial potential from superposition of free atoms

     starting charge   13.99991, renormalised to   14.00000

     negative rho (up, down):  1.391E-04 0.000E+00
     Starting wfcs are   12 randomized atomic wfcs

     total cpu time spent up to now is        1.2 secs

     Self-consistent Calculation

     iteration #  1     ecut=    70.00 Ry     beta= 0.50
     Davidson diagonalization with overlap
     ethr =  1.00E-02,  avg # of iterations =  2.0

     negative rho (up, down):  5.230E-05 0.000E+00

     total cpu time spent up to now is        2.2 secs

     total energy              =     -49.68486605 Ry
     estimated scf accuracy    <       0.67866531 Ry

     iteration #  2     ecut=    70.00 Ry     beta= 0.50
     Davidson diagonalization with overlap
     ethr =  4.85E-03,  avg # of iterations =  2.0

     negative rho (up, down):  2.310E-05 0.000E+00

     total cpu time spent up to now is        3.2 secs

     total energy              =     -49.80673508 Ry
     estimated scf accuracy    <       0.06734792 Ry

     iteration #  3     ecut=    70.00 Ry     beta= 0.50
     Davidson diagonalization with overlap
     ethr =  4.81E-04,  avg # of iterations =  2.0

     negative rho (up, down):  3.690E-06 0.000E+00

     total cpu time spent up to now is        4.1 secs

     total energy              =     -49.80759423 Ry
     estimated scf accuracy    <       0.01197954 Ry

     iteration #  4     ecut=    70.00 Ry     beta= 0.50
     Davidson diagonalization with overlap
     ethr =  8.56E-05,  avg # of iterations =  2.0

     negative rho (up, down):  6.385E-07 0.000E+00

     total cpu time spent up to now is        5.0 secs

     total energy              =     -49.80877571 Ry
     estimated scf accuracy    <       0.00103212 Ry

     iteration #  5     ecut=    70.00 Ry     beta= 0.50
     Davidson diagonalization with overlap
     ethr =  7.37E-06,  avg # of iterations =  2.0

     negative rho (up, down):  2.192E-08 0.000E+00

     total cpu time spent up to now is        6.1 secs

     total energy              =     -49.80901380 Ry
     estimated scf accuracy    <       0.00004756 Ry

     iteration #  6     ecut=    70.00 Ry     beta= 0.50
     Davidson diagonalization with overlap
     ethr =  3.40E-07,  avg # of iterations =  2.0

     total cpu time spent up to now is        7.1 secs

     total energy              =     -49.80902307 Ry
     estimated scf accuracy    <       0.00000996 Ry

     iteration #  7     ecut=    70.00 Ry     beta= 0.50
     Davidson diagonalization with overlap
     ethr =  7.11E-08,  avg # of iterations =  2.0

     total cpu time spent up to now is        8.1 secs

     total energy              =     -49.80902441 Ry
     estimated scf accuracy    <       0.00000084 Ry

     iteration #  8     ecut=    70.00 Ry     beta= 0.50
     Davidson diagonalization with overlap
     ethr =  6.02E-09,  avg # of iterations =  3.0

     total cpu time spent up to now is        9.1 secs

     total energy              =     -49.80902474 Ry
     estimated scf accuracy    <       0.00000054 Ry

     iteration #  9     ecut=    70.00 Ry     beta= 0.50
     Davidson diagonalization with overlap
     ethr =  3.86E-09,  avg # of iterations =  2.0

     total cpu time spent up to now is       10.1 secs

     total energy              =     -49.80902482 Ry
     estimated scf accuracy    <       0.00000001 Ry

     iteration # 10     ecut=    70.00 Ry     beta= 0.50
     Davidson diagonalization with overlap
     ethr =  9.17E-11,  avg # of iterations =  5.0

     total cpu time spent up to now is       11.3 secs

     total energy              =     -49.80902483 Ry
     estimated scf accuracy    <       0.00000001 Ry

     iteration # 11     ecut=    70.00 Ry     beta= 0.50
     Davidson diagonalization with overlap
     ethr =  8.58E-11,  avg # of iterations =  2.0

     total cpu time spent up to now is       12.3 secs

     total energy              =     -49.80902483 Ry
     estimated scf accuracy    <          2.2E-09 Ry

     iteration # 12     ecut=    70.00 Ry     beta= 0.50
     Davidson diagonalization with overlap
     ethr =  1.58E-11,  avg # of iterations =  3.0

     total cpu time spent up to now is       13.4 secs

     total energy              =     -49.80902483 Ry
     estimated scf accuracy    <          7.2E-10 Ry

     iteration # 13     ecut=    70.00 Ry     beta= 0.50
     Davidson diagonalization with overlap
     ethr =  5.15E-12,  avg # of iterations =  2.0

     total cpu time spent up to now is       14.4 secs

     total energy              =     -49.80902483 Ry
     estimated scf accuracy    <          4.9E-11 Ry

     iteration # 14     ecut=    70.00 Ry     beta= 0.50
     Davidson diagonalization with overlap
     ethr =  3.50E-13,  avg # of iterations =  5.0

     total cpu time spent up to now is       15.6 secs

     total energy              =     -49.80902483 Ry
     estimated scf accuracy    <          1.9E-11 Ry

     iteration # 15     ecut=    70.00 Ry     beta= 0.50
     Davidson diagonalization with overlap
     ethr =  1.34E-13,  avg # of iterations =  2.0

     total cpu time spent up to now is       16.6 secs

     total energy              =     -49.80902483 Ry
     estimated scf accuracy    <          3.6E-12 Ry

     iteration # 16     ecut=    70.00 Ry     beta= 0.50
     Davidson diagonalization with overlap
     ethr =  1.00E-13,  avg # of iterations =  2.0

     total cpu time spent up to now is       17.4 secs

     End of self-consistent calculation

          k = 0.0000 0.0000 0.0000 ( 39559 PWs)   bands (ev):

   -25.3442 -16.7353 -12.3946 -10.4431 -10.1457  -7.8118  -6.1284

     highest occupied level (ev):    -6.1284

!    total energy              =     -49.80902483 Ry
     estimated scf accuracy    <          3.4E-13 Ry

     The total energy is the sum of the following terms:
     one-electron contribution =    -119.47364158 Ry
     hartree contribution      =      62.04186582 Ry
     xc contribution           =     -15.48974540 Ry
     ewald contribution        =      23.11249632 Ry

     convergence has been achieved in  16 iterations

     Forces acting on atoms (cartesian axes, Ry/au):

     atom    1 type  1   force =     0.00248401   -0.01093761    0.00081762
     atom    2 type  2   force =    -0.01199897   -0.03625100   -0.00154505
     atom    3 type  3   force =     0.00024910   -0.00270306    0.00159257
     atom    4 type  3   force =     0.00011386    0.00709896   -0.00997033
     atom    5 type  3   force =    -0.00250347    0.00482771    0.00917769
     atom    6 type  3   force =     0.01165547    0.03796500   -0.00007251

     Total force =     0.058632     Total SCF correction =     0.000001

     Writing output data file ./Methanol.save/

     init_run     :      1.07s CPU      1.13s WALL (       1 calls)
     electrons    :     15.81s CPU     16.18s WALL (       1 calls)
     forces       :      0.70s CPU      0.71s WALL (       1 calls)

     Called by init_run:
     wfcinit      :      0.23s CPU      0.24s WALL (       1 calls)
     potinit      :      0.49s CPU      0.53s WALL (       1 calls)
     hinit0       :      0.23s CPU      0.24s WALL (       1 calls)

     Called by electrons:
     c_bands      :      7.21s CPU      7.28s WALL (      16 calls)
     sum_band     :      2.20s CPU      2.21s WALL (      16 calls)
     v_of_rho     :      5.07s CPU      5.38s WALL (      17 calls)
     mix_rho      :      1.43s CPU      1.44s WALL (      16 calls)

     Called by c_bands:
     init_us_2    :      0.16s CPU      0.17s WALL (      33 calls)
     regterg      :      7.02s CPU      7.09s WALL (      16 calls)

     Called by *egterg:
     rdiaghg      :      0.03s CPU      0.03s WALL (      56 calls)
     h_psi        :      6.65s CPU      6.71s WALL (      57 calls)
     g_psi        :      0.01s CPU      0.01s WALL (      40 calls)

     Called by h_psi:
     h_psi:calbec :      0.42s CPU      0.42s WALL (      57 calls)
     vloc_psi     :      5.87s CPU      5.92s WALL (      57 calls)
     add_vuspsi   :      0.33s CPU      0.33s WALL (      57 calls)

     General routines
     calbec       :      0.45s CPU      0.46s WALL (      61 calls)
     fft          :      3.58s CPU      3.65s WALL (     144 calls)
     ffts         :      0.41s CPU      0.41s WALL (      16 calls)
     fftw         :      5.75s CPU      5.79s WALL (     452 calls)

     Parallel routines

     PWSCF        :     17.70s CPU     18.17s WALL


   This run was terminated on:   5:48: 0  24May2021            

=------------------------------------------------------------------------------=
   JOB DONE.
=------------------------------------------------------------------------------=
