
     Program PWSCF v.6.7GPU starts on 24May2021 at  5:48:43 

     This program is part of the open-source Quantum ESPRESSO suite
     for quantum simulation of materials; please cite
         "P. Giannozzi et al., J. Phys.:Condens. Matter 21 395502 (2009);
         "P. Giannozzi et al., J. Phys.:Condens. Matter 29 465901 (2017);
         "P. Giannozzi et al., J. Chem. Phys. 152 154105 (2020);
          URL http://www.quantum-espresso.org", 
     in publications or presentations arising from this work. More details at
     http://www.quantum-espresso.org/quote

     Parallel version (MPI), running on     4 processors

     MPI processes distributed on     1 nodes
     R & G space division:  proc/nbgrp/npool/nimage =       4
     Waiting for input...
     Reading input from standard input
     Message from routine read_cards :
     DEPRECATED: no units specified in CELL_PARAMETERS card

     Current dimensions of program PWSCF are:
     Max number of different atomic species (ntypx) = 10
     Max number of k-points (npk) =  40000
     Max angular momentum in pseudopotentials (lmaxx) =  3

     gamma-point specific algorithms are used

     Subspace diagonalization in iterative solution of the eigenvalue problem:
     one sub-group per band group will be used
     scalapack distributed-memory algorithm (size of sub-group:  2*  2 procs)


     Parallelization info
     --------------------
     sticks:   dense  smooth     PW     G-vecs:    dense   smooth      PW
     Min        2700    2700    675               211636   211636   26505
     Max        2704    2704    678               211641   211641   26514
     Sum       10805   10805   2709               846553   846553  106047

     Using Slab Decomposition



     bravais-lattice index     =            0
     lattice parameter (alat)  =      20.0000  a.u.
     unit-cell volume          =    8000.0000 (a.u.)^3
     number of atoms/cell      =            6
     number of atomic types    =            3
     number of electrons       =        14.00
     number of Kohn-Sham states=            7
     kinetic-energy cutoff     =      85.0000  Ry
     charge density cutoff     =     340.0000  Ry
     scf convergence threshold =      1.0E-12
     mixing beta               =       0.5000
     number of iterations used =            8  plain     mixing
     Exchange-correlation= PBE
                           (   1   4   3   4   0   0   0)

     celldm(1)=  20.000000  celldm(2)=   0.000000  celldm(3)=   0.000000
     celldm(4)=   0.000000  celldm(5)=   0.000000  celldm(6)=   0.000000

     crystal axes: (cart. coord. in units of alat)
               a(1) = (   1.000000   0.000000   0.000000 )  
               a(2) = (   0.000000   1.000000   0.000000 )  
               a(3) = (   0.000000   0.000000   1.000000 )  

     reciprocal axes: (cart. coord. in units 2 pi/alat)
               b(1) = (  1.000000  0.000000  0.000000 )  
               b(2) = (  0.000000  1.000000  0.000000 )  
               b(3) = (  0.000000  0.000000  1.000000 )  


     PseudoPot. # 1 for C  read from file:
     /home/ciga/builds/pseudo_potentials/C.upf
     MD5 check sum: d80ec9912146af6c4c1760317d1f95e9
     Pseudo is Norm-conserving + core correction, Zval =  4.0
     Generated using ONCVPSP code by D. R. Hamann
     Using radial grid of 1248 points,  4 beta functions with: 
                l(1) =   0
                l(2) =   0
                l(3) =   1
                l(4) =   1

     PseudoPot. # 2 for O  read from file:
     /home/ciga/builds/pseudo_potentials/O.upf
     MD5 check sum: e357869f07dbe8d608261c380baea405
     Pseudo is Norm-conserving + core correction, Zval =  6.0
     Generated using ONCVPSP code by D. R. Hamann
     Using radial grid of  936 points,  5 beta functions with: 
                l(1) =   0
                l(2) =   0
                l(3) =   1
                l(4) =   1
                l(5) =   2

     PseudoPot. # 3 for H  read from file:
     /home/ciga/builds/pseudo_potentials/H.upf
     MD5 check sum: 418cee52d0c413ae40802e6cc37ab9e3
     Pseudo is Norm-conserving, Zval =  1.0
     Generated using ONCVPSP code by D. R. Hamann
     Using radial grid of 1166 points,  3 beta functions with: 
                l(1) =   0
                l(2) =   0
                l(3) =   1

     atomic species   valence    mass     pseudopotential
        C              4.00    12.01070     C ( 1.00)
        O              6.00    15.99940     O ( 1.00)
        H              1.00     1.00794     H ( 1.00)

     No symmetry found



   Cartesian axes

     site n.     atom                  positions (alat units)
         1           C   tau(   1) = (  -0.0682939  -0.0006651   0.0000000  )
         2           O   tau(   2) = (   0.0662998   0.0011046   0.0000000  )
         3           H   tau(   3) = (  -0.0966111  -0.1000789   0.0000000  )
         4           H   tau(   4) = (  -0.1098222   0.0430083  -0.0839355  )
         5           H   tau(   5) = (  -0.1084954   0.0442451   0.0839288  )
         6           H   tau(   6) = (   0.0935635   0.0861400   0.0000000  )

     number of k points=     1
                       cart. coord. in units 2pi/alat
        k(    1) = (   0.0000000   0.0000000   0.0000000), wk =   2.0000000

     Dense  grid:   423277 G-vectors     FFT dimensions: ( 120, 120, 120)

     Estimated max dynamical RAM per process >      98.64 MB

     Estimated total dynamical RAM >     394.57 MB

     Initial potential from superposition of free atoms

     starting charge   13.99991, renormalised to   14.00000

     negative rho (up, down):  3.119E-05 0.000E+00
     Starting wfcs are   12 randomized atomic wfcs

     total cpu time spent up to now is        1.5 secs

     Self-consistent Calculation

     iteration #  1     ecut=    85.00 Ry     beta= 0.50
     Davidson diagonalization with overlap
     ethr =  1.00E-02,  avg # of iterations =  2.0

     negative rho (up, down):  6.262E-06 0.000E+00

     total cpu time spent up to now is        2.7 secs

     total energy              =     -49.68579379 Ry
     estimated scf accuracy    <       0.68075899 Ry

     iteration #  2     ecut=    85.00 Ry     beta= 0.50
     Davidson diagonalization with overlap
     ethr =  4.86E-03,  avg # of iterations =  2.0

     negative rho (up, down):  1.998E-06 0.000E+00

     total cpu time spent up to now is        3.9 secs

     total energy              =     -49.80860147 Ry
     estimated scf accuracy    <       0.06762070 Ry

     iteration #  3     ecut=    85.00 Ry     beta= 0.50
     Davidson diagonalization with overlap
     ethr =  4.83E-04,  avg # of iterations =  2.0

     negative rho (up, down):  2.163E-07 0.000E+00

     total cpu time spent up to now is        5.0 secs

     total energy              =     -49.80944716 Ry
     estimated scf accuracy    <       0.01203760 Ry

     iteration #  4     ecut=    85.00 Ry     beta= 0.50
     Davidson diagonalization with overlap
     ethr =  8.60E-05,  avg # of iterations =  2.0

     negative rho (up, down):  3.052E-08 0.000E+00

     total cpu time spent up to now is        6.1 secs

     total energy              =     -49.81064442 Ry
     estimated scf accuracy    <       0.00104599 Ry

     iteration #  5     ecut=    85.00 Ry     beta= 0.50
     Davidson diagonalization with overlap
     ethr =  7.47E-06,  avg # of iterations =  2.0

     total cpu time spent up to now is        7.3 secs

     total energy              =     -49.81088722 Ry
     estimated scf accuracy    <       0.00004853 Ry

     iteration #  6     ecut=    85.00 Ry     beta= 0.50
     Davidson diagonalization with overlap
     ethr =  3.47E-07,  avg # of iterations =  2.0

     total cpu time spent up to now is        8.6 secs

     total energy              =     -49.81089667 Ry
     estimated scf accuracy    <       0.00001027 Ry

     iteration #  7     ecut=    85.00 Ry     beta= 0.50
     Davidson diagonalization with overlap
     ethr =  7.33E-08,  avg # of iterations =  2.0

     total cpu time spent up to now is        9.8 secs

     total energy              =     -49.81089802 Ry
     estimated scf accuracy    <       0.00000088 Ry

     iteration #  8     ecut=    85.00 Ry     beta= 0.50
     Davidson diagonalization with overlap
     ethr =  6.26E-09,  avg # of iterations =  3.0

     total cpu time spent up to now is       11.1 secs

     total energy              =     -49.81089837 Ry
     estimated scf accuracy    <       0.00000056 Ry

     iteration #  9     ecut=    85.00 Ry     beta= 0.50
     Davidson diagonalization with overlap
     ethr =  4.01E-09,  avg # of iterations =  2.0

     total cpu time spent up to now is       12.3 secs

     total energy              =     -49.81089845 Ry
     estimated scf accuracy    <       0.00000001 Ry

     iteration # 10     ecut=    85.00 Ry     beta= 0.50
     Davidson diagonalization with overlap
     ethr =  9.69E-11,  avg # of iterations =  5.0

     total cpu time spent up to now is       13.8 secs

     total energy              =     -49.81089846 Ry
     estimated scf accuracy    <       0.00000001 Ry

     iteration # 11     ecut=    85.00 Ry     beta= 0.50
     Davidson diagonalization with overlap
     ethr =  8.80E-11,  avg # of iterations =  2.0

     total cpu time spent up to now is       15.0 secs

     total energy              =     -49.81089846 Ry
     estimated scf accuracy    <          2.3E-09 Ry

     iteration # 12     ecut=    85.00 Ry     beta= 0.50
     Davidson diagonalization with overlap
     ethr =  1.67E-11,  avg # of iterations =  3.0

     total cpu time spent up to now is       16.3 secs

     total energy              =     -49.81089846 Ry
     estimated scf accuracy    <          7.7E-10 Ry

     iteration # 13     ecut=    85.00 Ry     beta= 0.50
     Davidson diagonalization with overlap
     ethr =  5.46E-12,  avg # of iterations =  2.0

     total cpu time spent up to now is       17.6 secs

     total energy              =     -49.81089846 Ry
     estimated scf accuracy    <          5.7E-11 Ry

     iteration # 14     ecut=    85.00 Ry     beta= 0.50
     Davidson diagonalization with overlap
     ethr =  4.07E-13,  avg # of iterations =  5.0

     total cpu time spent up to now is       19.0 secs

     total energy              =     -49.81089846 Ry
     estimated scf accuracy    <          1.8E-11 Ry

     iteration # 15     ecut=    85.00 Ry     beta= 0.50
     Davidson diagonalization with overlap
     ethr =  1.28E-13,  avg # of iterations =  2.0

     total cpu time spent up to now is       20.2 secs

     total energy              =     -49.81089846 Ry
     estimated scf accuracy    <          3.6E-12 Ry

     iteration # 16     ecut=    85.00 Ry     beta= 0.50
     Davidson diagonalization with overlap
     ethr =  1.00E-13,  avg # of iterations =  2.0

     total cpu time spent up to now is       21.2 secs

     End of self-consistent calculation

          k = 0.0000 0.0000 0.0000 ( 53024 PWs)   bands (ev):

   -25.3407 -16.7336 -12.3936 -10.4428 -10.1451  -7.8110  -6.1278

     highest occupied level (ev):    -6.1278

!    total energy              =     -49.81089846 Ry
     estimated scf accuracy    <          2.7E-13 Ry

     The total energy is the sum of the following terms:
     one-electron contribution =    -119.47680450 Ry
     hartree contribution      =      62.04429423 Ry
     xc contribution           =     -15.49088452 Ry
     ewald contribution        =      23.11249632 Ry

     convergence has been achieved in  16 iterations

     Forces acting on atoms (cartesian axes, Ry/au):

     atom    1 type  1   force =     0.00213772   -0.01095446    0.00081765
     atom    2 type  2   force =    -0.01171826   -0.03631768   -0.00154394
     atom    3 type  3   force =     0.00026240   -0.00251418    0.00159284
     atom    4 type  3   force =     0.00015378    0.00702869   -0.00981923
     atom    5 type  3   force =    -0.00246337    0.00475438    0.00902509
     atom    6 type  3   force =     0.01162772    0.03800326   -0.00007241

     Total force =     0.058551     Total SCF correction =     0.000001

     Writing output data file ./Methanol.save/

     init_run     :      1.29s CPU      1.39s WALL (       1 calls)
     electrons    :     19.29s CPU     19.74s WALL (       1 calls)
     forces       :      0.84s CPU      0.87s WALL (       1 calls)

     Called by init_run:
     wfcinit      :      0.28s CPU      0.29s WALL (       1 calls)
     potinit      :      0.59s CPU      0.64s WALL (       1 calls)
     hinit0       :      0.25s CPU      0.28s WALL (       1 calls)

     Called by electrons:
     c_bands      :      8.70s CPU      8.74s WALL (      16 calls)
     sum_band     :      2.75s CPU      2.77s WALL (      16 calls)
     v_of_rho     :      6.12s CPU      6.50s WALL (      17 calls)
     mix_rho      :      1.87s CPU      1.92s WALL (      16 calls)

     Called by c_bands:
     init_us_2    :      0.21s CPU      0.22s WALL (      33 calls)
     regterg      :      8.46s CPU      8.50s WALL (      16 calls)

     Called by *egterg:
     rdiaghg      :      0.03s CPU      0.03s WALL (      56 calls)
     h_psi        :      7.88s CPU      7.92s WALL (      57 calls)
     g_psi        :      0.02s CPU      0.02s WALL (      40 calls)

     Called by h_psi:
     h_psi:calbec :      0.53s CPU      0.53s WALL (      57 calls)
     vloc_psi     :      6.87s CPU      6.91s WALL (      57 calls)
     add_vuspsi   :      0.44s CPU      0.44s WALL (      57 calls)

     General routines
     calbec       :      0.57s CPU      0.57s WALL (      61 calls)
     fft          :      4.48s CPU      4.58s WALL (     144 calls)
     ffts         :      0.47s CPU      0.47s WALL (      16 calls)
     fftw         :      6.44s CPU      6.47s WALL (     452 calls)

     Parallel routines

     PWSCF        :     21.52s CPU     22.14s WALL


   This run was terminated on:   5:49: 5  24May2021            

=------------------------------------------------------------------------------=
   JOB DONE.
=------------------------------------------------------------------------------=
