
     Program PWSCF v.6.7GPU starts on 24May2021 at  2:33:38 

     This program is part of the open-source Quantum ESPRESSO suite
     for quantum simulation of materials; please cite
         "P. Giannozzi et al., J. Phys.:Condens. Matter 21 395502 (2009);
         "P. Giannozzi et al., J. Phys.:Condens. Matter 29 465901 (2017);
         "P. Giannozzi et al., J. Chem. Phys. 152 154105 (2020);
          URL http://www.quantum-espresso.org", 
     in publications or presentations arising from this work. More details at
     http://www.quantum-espresso.org/quote

     Parallel version (MPI), running on     4 processors

     MPI processes distributed on     1 nodes
     R & G space division:  proc/nbgrp/npool/nimage =       4
     Waiting for input...
     Reading input from standard input
     Message from routine read_cards :
     DEPRECATED: no units specified in CELL_PARAMETERS card

     Current dimensions of program PWSCF are:
     Max number of different atomic species (ntypx) = 10
     Max number of k-points (npk) =  40000
     Max angular momentum in pseudopotentials (lmaxx) =  3

     gamma-point specific algorithms are used

     Subspace diagonalization in iterative solution of the eigenvalue problem:
     one sub-group per band group will be used
     scalapack distributed-memory algorithm (size of sub-group:  2*  2 procs)


     Parallelization info
     --------------------
     sticks:   dense  smooth     PW     G-vecs:    dense   smooth      PW
     Min        1910    1910    473               125614   125614   15665
     Max        1912    1912    476               125624   125624   15668
     Sum        7645    7645   1901               502479   502479   62669

     Using Slab Decomposition



     bravais-lattice index     =            0
     lattice parameter (alat)  =      20.0000  a.u.
     unit-cell volume          =    8000.0000 (a.u.)^3
     number of atoms/cell      =           17
     number of atomic types    =            2
     number of electrons       =        32.00
     number of Kohn-Sham states=           16
     kinetic-energy cutoff     =      60.0000  Ry
     charge density cutoff     =     240.0000  Ry
     scf convergence threshold =      1.0E-12
     mixing beta               =       0.5000
     number of iterations used =            8  plain     mixing
     Exchange-correlation= PBE
                           (   1   4   3   4   0   0   0)

     celldm(1)=  20.000000  celldm(2)=   0.000000  celldm(3)=   0.000000
     celldm(4)=   0.000000  celldm(5)=   0.000000  celldm(6)=   0.000000

     crystal axes: (cart. coord. in units of alat)
               a(1) = (   1.000000   0.000000   0.000000 )  
               a(2) = (   0.000000   1.000000   0.000000 )  
               a(3) = (   0.000000   0.000000   1.000000 )  

     reciprocal axes: (cart. coord. in units 2 pi/alat)
               b(1) = (  1.000000  0.000000  0.000000 )  
               b(2) = (  0.000000  1.000000  0.000000 )  
               b(3) = (  0.000000  0.000000  1.000000 )  


     PseudoPot. # 1 for Si read from file:
     /home/ciga/builds/pseudo_potentials/Si.upf
     MD5 check sum: d8e8ea3dd55db7858206a05f373c9c65
     Pseudo is Norm-conserving + core correction, Zval =  4.0
     Generated using ONCVPSP code by D. R. Hamann
     Using radial grid of 1528 points,  6 beta functions with: 
                l(1) =   0
                l(2) =   0
                l(3) =   1
                l(4) =   1
                l(5) =   2
                l(6) =   2

     PseudoPot. # 2 for H  read from file:
     /home/ciga/builds/pseudo_potentials/H.upf
     MD5 check sum: 418cee52d0c413ae40802e6cc37ab9e3
     Pseudo is Norm-conserving, Zval =  1.0
     Generated using ONCVPSP code by D. R. Hamann
     Using radial grid of 1166 points,  3 beta functions with: 
                l(1) =   0
                l(2) =   0
                l(3) =   1

     atomic species   valence    mass     pseudopotential
        Si             4.00    28.08550     Si( 1.00)
        H              1.00     1.00794     H ( 1.00)

     No symmetry found



   Cartesian axes

     site n.     atom                  positions (alat units)
         1           Si  tau(   1) = (  -0.0004567  -0.3682105  -0.0494961  )
         2           H   tau(   2) = (   0.1123231  -0.3697634  -0.1346666  )
         3           H   tau(   3) = (   0.0021164  -0.4846031   0.0307355  )
         4           H   tau(   4) = (  -0.1170251  -0.3711704  -0.1293415  )
         5           Si  tau(   5) = (   0.0009870  -0.1845978   0.0752964  )
         6           Si  tau(   6) = (  -0.0000383   0.0000012  -0.0481964  )
         7           H   tau(   7) = (  -0.1124773  -0.1838504   0.1600975  )
         8           H   tau(   8) = (   0.1161867  -0.1845228   0.1577288  )
         9           Si  tau(   9) = (  -0.0009920   0.1845953   0.0752987  )
        10           H   tau(  10) = (  -0.1142215  -0.0003236  -0.1320757  )
        11           H   tau(  11) = (   0.1142196   0.0003503  -0.1319474  )
        12           Si  tau(  12) = (   0.0004908   0.3682099  -0.0494965  )
        13           H   tau(  13) = (  -0.0018088   0.4846029   0.0307427  )
        14           H   tau(  14) = (   0.1169488   0.3709770  -0.1295157  )
        15           H   tau(  15) = (  -0.1124097   0.3699713  -0.1344976  )
        16           H   tau(  16) = (   0.1125350   0.1842188   0.1600196  )
        17           H   tau(  17) = (  -0.1161321   0.1841651   0.1578115  )

     number of k points=     1
                       cart. coord. in units 2pi/alat
        k(    1) = (   0.0000000   0.0000000   0.0000000), wk =   2.0000000

     Dense  grid:   251240 G-vectors     FFT dimensions: ( 100, 100, 100)

     Estimated max dynamical RAM per process >      75.25 MB

     Estimated total dynamical RAM >     301.02 MB

     Initial potential from superposition of free atoms

     starting charge   31.99682, renormalised to   32.00000

     negative rho (up, down):  1.344E-04 0.000E+00
     Starting wfcs are   32 randomized atomic wfcs

     total cpu time spent up to now is        1.3 secs

     Self-consistent Calculation

     iteration #  1     ecut=    60.00 Ry     beta= 0.50
     Davidson diagonalization with overlap
     ethr =  1.00E-02,  avg # of iterations =  3.0

     negative rho (up, down):  4.519E-05 0.000E+00

     total cpu time spent up to now is        2.8 secs

     total energy              =     -54.95095746 Ry
     estimated scf accuracy    <       0.99835125 Ry

     iteration #  2     ecut=    60.00 Ry     beta= 0.50
     Davidson diagonalization with overlap
     ethr =  3.12E-03,  avg # of iterations =  2.0

     negative rho (up, down):  2.146E-06 0.000E+00

     total cpu time spent up to now is        3.9 secs

     total energy              =     -54.91236226 Ry
     estimated scf accuracy    <       0.17383448 Ry

     iteration #  3     ecut=    60.00 Ry     beta= 0.50
     Davidson diagonalization with overlap
     ethr =  5.43E-04,  avg # of iterations =  2.0

     negative rho (up, down):  1.272E-06 0.000E+00

     total cpu time spent up to now is        5.2 secs

     total energy              =     -54.93937121 Ry
     estimated scf accuracy    <       0.00595469 Ry

     iteration #  4     ecut=    60.00 Ry     beta= 0.50
     Davidson diagonalization with overlap
     ethr =  1.86E-05,  avg # of iterations =  4.0

     negative rho (up, down):  2.967E-08 0.000E+00

     total cpu time spent up to now is        6.7 secs

     total energy              =     -54.94131792 Ry
     estimated scf accuracy    <       0.00099499 Ry

     iteration #  5     ecut=    60.00 Ry     beta= 0.50
     Davidson diagonalization with overlap
     ethr =  3.11E-06,  avg # of iterations =  4.0

     total cpu time spent up to now is        8.0 secs

     total energy              =     -54.94148847 Ry
     estimated scf accuracy    <       0.00006770 Ry

     iteration #  6     ecut=    60.00 Ry     beta= 0.50
     Davidson diagonalization with overlap
     ethr =  2.12E-07,  avg # of iterations =  4.0

     total cpu time spent up to now is        9.6 secs

     total energy              =     -54.94150358 Ry
     estimated scf accuracy    <       0.00001585 Ry

     iteration #  7     ecut=    60.00 Ry     beta= 0.50
     Davidson diagonalization with overlap
     ethr =  4.95E-08,  avg # of iterations =  3.0

     total cpu time spent up to now is       11.0 secs

     total energy              =     -54.94150583 Ry
     estimated scf accuracy    <       0.00000321 Ry

     iteration #  8     ecut=    60.00 Ry     beta= 0.50
     Davidson diagonalization with overlap
     ethr =  1.00E-08,  avg # of iterations =  4.0

     total cpu time spent up to now is       12.3 secs

     total energy              =     -54.94150649 Ry
     estimated scf accuracy    <       0.00000023 Ry

     iteration #  9     ecut=    60.00 Ry     beta= 0.50
     Davidson diagonalization with overlap
     ethr =  7.13E-10,  avg # of iterations =  3.0

     total cpu time spent up to now is       13.7 secs

     total energy              =     -54.94150656 Ry
     estimated scf accuracy    <       0.00000004 Ry

     iteration # 10     ecut=    60.00 Ry     beta= 0.50
     Davidson diagonalization with overlap
     ethr =  1.13E-10,  avg # of iterations =  2.0

     total cpu time spent up to now is       15.1 secs

     total energy              =     -54.94150656 Ry
     estimated scf accuracy    <          8.6E-09 Ry

     iteration # 11     ecut=    60.00 Ry     beta= 0.50
     Davidson diagonalization with overlap
     ethr =  2.69E-11,  avg # of iterations =  3.0

     total cpu time spent up to now is       16.5 secs

     total energy              =     -54.94150656 Ry
     estimated scf accuracy    <          1.5E-09 Ry

     iteration # 12     ecut=    60.00 Ry     beta= 0.50
     Davidson diagonalization with overlap
     ethr =  4.82E-12,  avg # of iterations =  5.0

     total cpu time spent up to now is       17.9 secs

     total energy              =     -54.94150656 Ry
     estimated scf accuracy    <          1.6E-10 Ry

     iteration # 13     ecut=    60.00 Ry     beta= 0.50
     Davidson diagonalization with overlap
     ethr =  4.99E-13,  avg # of iterations =  3.0

     total cpu time spent up to now is       19.4 secs

     total energy              =     -54.94150656 Ry
     estimated scf accuracy    <          2.0E-11 Ry

     iteration # 14     ecut=    60.00 Ry     beta= 0.50
     Davidson diagonalization with overlap
     ethr =  1.00E-13,  avg # of iterations =  6.0

     total cpu time spent up to now is       20.7 secs

     total energy              =     -54.94150656 Ry
     estimated scf accuracy    <          7.7E-12 Ry

     iteration # 15     ecut=    60.00 Ry     beta= 0.50
     Davidson diagonalization with overlap
     ethr =  1.00E-13,  avg # of iterations =  2.0

     total cpu time spent up to now is       21.8 secs

     End of self-consistent calculation

          k = 0.0000 0.0000 0.0000 ( 31335 PWs)   bands (ev):

   -19.7295 -12.9167 -12.3799 -11.3421 -10.5703 -10.3801  -8.3373  -7.5978
    -7.5949  -6.9337  -6.7988  -6.6977  -6.2329  -6.0414  -5.7385  -2.2439

     highest occupied level (ev):    -2.2439

!    total energy              =     -54.94150656 Ry
     estimated scf accuracy    <          5.6E-13 Ry

     The total energy is the sum of the following terms:
     one-electron contribution =    -136.79408778 Ry
     hartree contribution      =      71.59202391 Ry
     xc contribution           =     -24.06474746 Ry
     ewald contribution        =      34.32530478 Ry

     convergence has been achieved in  15 iterations

     Forces acting on atoms (cartesian axes, Ry/au):

     atom    1 type  1   force =     0.00170503    0.27311051   -0.03503054
     atom    2 type  2   force =     0.00120914   -0.01274792    0.00415706
     atom    3 type  2   force =     0.45953889    3.61977794    0.03868247
     atom    4 type  2   force =    -0.00099831   -0.01442938    0.00565835
     atom    5 type  1   force =    -0.00064464    0.01924132   -0.02549183
     atom    6 type  1   force =     0.00022358   -0.00000032    0.02379259
     atom    7 type  2   force =    -0.00011523   -0.00329277   -0.00012480
     atom    8 type  2   force =     0.00010731   -0.00313014   -0.00020364
     atom    9 type  1   force =     0.00051253   -0.01922492   -0.02549589
     atom   10 type  2   force =    -0.00002156   -0.00015645   -0.00034578
     atom   11 type  2   force =     0.00007694    0.00014604   -0.00050316
     atom   12 type  1   force =    -0.00208658   -0.27310788   -0.03499418
     atom   13 type  2   force =    -0.45936117   -3.61980273    0.04039773
     atom   14 type  2   force =     0.00103533    0.01439268    0.00563857
     atom   15 type  2   force =    -0.00117149    0.01279913    0.00419105
     atom   16 type  2   force =     0.00010688    0.00306738   -0.00013328
     atom   17 type  2   force =    -0.00011666    0.00335751   -0.00019474

     Total force =     5.175540     Total SCF correction =     0.000000

     Writing output data file ./Pentasilane.save/

     init_run     :      1.16s CPU      1.22s WALL (       1 calls)
     electrons    :     20.21s CPU     20.46s WALL (       1 calls)
     forces       :      0.85s CPU      0.87s WALL (       1 calls)

     Called by init_run:
     wfcinit      :      0.59s CPU      0.60s WALL (       1 calls)
     potinit      :      0.35s CPU      0.38s WALL (       1 calls)
     hinit0       :      0.13s CPU      0.15s WALL (       1 calls)

     Called by electrons:
     c_bands      :     13.47s CPU     13.56s WALL (      15 calls)
     sum_band     :      2.25s CPU      2.26s WALL (      15 calls)
     v_of_rho     :      3.61s CPU      3.75s WALL (      16 calls)
     mix_rho      :      0.98s CPU      0.99s WALL (      15 calls)

     Called by c_bands:
     init_us_2    :      0.31s CPU      0.31s WALL (      31 calls)
     regterg      :     12.86s CPU     12.94s WALL (      15 calls)

     Called by *egterg:
     rdiaghg      :      0.06s CPU      0.06s WALL (      65 calls)
     h_psi        :     11.38s CPU     11.46s WALL (      66 calls)
     g_psi        :      0.03s CPU      0.03s WALL (      50 calls)

     Called by h_psi:
     h_psi:calbec :      2.45s CPU      2.46s WALL (      66 calls)
     vloc_psi     :      6.96s CPU      7.02s WALL (      66 calls)
     add_vuspsi   :      1.91s CPU      1.92s WALL (      66 calls)

     General routines
     calbec       :      2.67s CPU      2.68s WALL (      70 calls)
     fft          :      2.42s CPU      2.47s WALL (     136 calls)
     ffts         :      0.26s CPU      0.26s WALL (      15 calls)
     fftw         :      6.52s CPU      6.57s WALL (     846 calls)

     Parallel routines

     PWSCF        :     22.32s CPU     22.68s WALL


   This run was terminated on:   2:34: 1  24May2021            

=------------------------------------------------------------------------------=
   JOB DONE.
=------------------------------------------------------------------------------=
