
     Program PWSCF v.6.7GPU starts on 24May2021 at  2:38:10 

     This program is part of the open-source Quantum ESPRESSO suite
     for quantum simulation of materials; please cite
         "P. Giannozzi et al., J. Phys.:Condens. Matter 21 395502 (2009);
         "P. Giannozzi et al., J. Phys.:Condens. Matter 29 465901 (2017);
         "P. Giannozzi et al., J. Chem. Phys. 152 154105 (2020);
          URL http://www.quantum-espresso.org", 
     in publications or presentations arising from this work. More details at
     http://www.quantum-espresso.org/quote

     Parallel version (MPI), running on     4 processors

     MPI processes distributed on     1 nodes
     R & G space division:  proc/nbgrp/npool/nimage =       4
     Waiting for input...
     Reading input from standard input
     Message from routine read_cards :
     DEPRECATED: no units specified in CELL_PARAMETERS card

     Current dimensions of program PWSCF are:
     Max number of different atomic species (ntypx) = 10
     Max number of k-points (npk) =  40000
     Max angular momentum in pseudopotentials (lmaxx) =  3

     gamma-point specific algorithms are used

     Subspace diagonalization in iterative solution of the eigenvalue problem:
     one sub-group per band group will be used
     scalapack distributed-memory algorithm (size of sub-group:  2*  2 procs)


     Parallelization info
     --------------------
     sticks:   dense  smooth     PW     G-vecs:    dense   smooth      PW
     Min        3022    3022    754               250214   250214   31205
     Max        3024    3024    755               250219   250219   31206
     Sum       12093   12093   3017              1000865  1000865  124823

     Using Slab Decomposition



     bravais-lattice index     =            0
     lattice parameter (alat)  =      20.0000  a.u.
     unit-cell volume          =    8000.0000 (a.u.)^3
     number of atoms/cell      =           17
     number of atomic types    =            2
     number of electrons       =        32.00
     number of Kohn-Sham states=           16
     kinetic-energy cutoff     =      95.0000  Ry
     charge density cutoff     =     380.0000  Ry
     scf convergence threshold =      1.0E-12
     mixing beta               =       0.5000
     number of iterations used =            8  plain     mixing
     Exchange-correlation= PBE
                           (   1   4   3   4   0   0   0)

     celldm(1)=  20.000000  celldm(2)=   0.000000  celldm(3)=   0.000000
     celldm(4)=   0.000000  celldm(5)=   0.000000  celldm(6)=   0.000000

     crystal axes: (cart. coord. in units of alat)
               a(1) = (   1.000000   0.000000   0.000000 )  
               a(2) = (   0.000000   1.000000   0.000000 )  
               a(3) = (   0.000000   0.000000   1.000000 )  

     reciprocal axes: (cart. coord. in units 2 pi/alat)
               b(1) = (  1.000000  0.000000  0.000000 )  
               b(2) = (  0.000000  1.000000  0.000000 )  
               b(3) = (  0.000000  0.000000  1.000000 )  


     PseudoPot. # 1 for Si read from file:
     /home/ciga/builds/pseudo_potentials/Si.upf
     MD5 check sum: d8e8ea3dd55db7858206a05f373c9c65
     Pseudo is Norm-conserving + core correction, Zval =  4.0
     Generated using ONCVPSP code by D. R. Hamann
     Using radial grid of 1528 points,  6 beta functions with: 
                l(1) =   0
                l(2) =   0
                l(3) =   1
                l(4) =   1
                l(5) =   2
                l(6) =   2

     PseudoPot. # 2 for H  read from file:
     /home/ciga/builds/pseudo_potentials/H.upf
     MD5 check sum: 418cee52d0c413ae40802e6cc37ab9e3
     Pseudo is Norm-conserving, Zval =  1.0
     Generated using ONCVPSP code by D. R. Hamann
     Using radial grid of 1166 points,  3 beta functions with: 
                l(1) =   0
                l(2) =   0
                l(3) =   1

     atomic species   valence    mass     pseudopotential
        Si             4.00    28.08550     Si( 1.00)
        H              1.00     1.00794     H ( 1.00)

     No symmetry found



   Cartesian axes

     site n.     atom                  positions (alat units)
         1           Si  tau(   1) = (  -0.0004567  -0.3682105  -0.0494961  )
         2           H   tau(   2) = (   0.1123231  -0.3697634  -0.1346666  )
         3           H   tau(   3) = (   0.0021164  -0.4846031   0.0307355  )
         4           H   tau(   4) = (  -0.1170251  -0.3711704  -0.1293415  )
         5           Si  tau(   5) = (   0.0009870  -0.1845978   0.0752964  )
         6           Si  tau(   6) = (  -0.0000383   0.0000012  -0.0481964  )
         7           H   tau(   7) = (  -0.1124773  -0.1838504   0.1600975  )
         8           H   tau(   8) = (   0.1161867  -0.1845228   0.1577288  )
         9           Si  tau(   9) = (  -0.0009920   0.1845953   0.0752987  )
        10           H   tau(  10) = (  -0.1142215  -0.0003236  -0.1320757  )
        11           H   tau(  11) = (   0.1142196   0.0003503  -0.1319474  )
        12           Si  tau(  12) = (   0.0004908   0.3682099  -0.0494965  )
        13           H   tau(  13) = (  -0.0018088   0.4846029   0.0307427  )
        14           H   tau(  14) = (   0.1169488   0.3709770  -0.1295157  )
        15           H   tau(  15) = (  -0.1124097   0.3699713  -0.1344976  )
        16           H   tau(  16) = (   0.1125350   0.1842188   0.1600196  )
        17           H   tau(  17) = (  -0.1161321   0.1841651   0.1578115  )

     number of k points=     1
                       cart. coord. in units 2pi/alat
        k(    1) = (   0.0000000   0.0000000   0.0000000), wk =   2.0000000

     Dense  grid:   500433 G-vectors     FFT dimensions: ( 125, 125, 125)

     Estimated max dynamical RAM per process >     148.20 MB

     Estimated total dynamical RAM >     592.80 MB

     Initial potential from superposition of free atoms

     starting charge   31.99682, renormalised to   32.00000

     negative rho (up, down):  9.747E-07 0.000E+00
     Starting wfcs are   32 randomized atomic wfcs

     total cpu time spent up to now is        2.6 secs

     Self-consistent Calculation

     iteration #  1     ecut=    95.00 Ry     beta= 0.50
     Davidson diagonalization with overlap
     ethr =  1.00E-02,  avg # of iterations =  3.0

     total cpu time spent up to now is        5.8 secs

     total energy              =     -54.95372241 Ry
     estimated scf accuracy    <       1.00038260 Ry

     iteration #  2     ecut=    95.00 Ry     beta= 0.50
     Davidson diagonalization with overlap
     ethr =  3.13E-03,  avg # of iterations =  2.0

     total cpu time spent up to now is        8.3 secs

     total energy              =     -54.91504336 Ry
     estimated scf accuracy    <       0.17407659 Ry

     iteration #  3     ecut=    95.00 Ry     beta= 0.50
     Davidson diagonalization with overlap
     ethr =  5.44E-04,  avg # of iterations =  2.0

     total cpu time spent up to now is       11.1 secs

     total energy              =     -54.94216847 Ry
     estimated scf accuracy    <       0.00595742 Ry

     iteration #  4     ecut=    95.00 Ry     beta= 0.50
     Davidson diagonalization with overlap
     ethr =  1.86E-05,  avg # of iterations =  5.0

     total cpu time spent up to now is       14.4 secs

     total energy              =     -54.94416672 Ry
     estimated scf accuracy    <       0.00100041 Ry

     iteration #  5     ecut=    95.00 Ry     beta= 0.50
     Davidson diagonalization with overlap
     ethr =  3.13E-06,  avg # of iterations =  2.0

     total cpu time spent up to now is       17.2 secs

     total energy              =     -54.94431555 Ry
     estimated scf accuracy    <       0.00006240 Ry

     iteration #  6     ecut=    95.00 Ry     beta= 0.50
     Davidson diagonalization with overlap
     ethr =  1.95E-07,  avg # of iterations =  5.0

     total cpu time spent up to now is       20.6 secs

     total energy              =     -54.94433579 Ry
     estimated scf accuracy    <       0.00001502 Ry

     iteration #  7     ecut=    95.00 Ry     beta= 0.50
     Davidson diagonalization with overlap
     ethr =  4.69E-08,  avg # of iterations =  4.0

     total cpu time spent up to now is       23.8 secs

     total energy              =     -54.94433824 Ry
     estimated scf accuracy    <       0.00000701 Ry

     iteration #  8     ecut=    95.00 Ry     beta= 0.50
     Davidson diagonalization with overlap
     ethr =  2.19E-08,  avg # of iterations =  2.0

     total cpu time spent up to now is       26.4 secs

     total energy              =     -54.94433928 Ry
     estimated scf accuracy    <       0.00000026 Ry

     iteration #  9     ecut=    95.00 Ry     beta= 0.50
     Davidson diagonalization with overlap
     ethr =  8.19E-10,  avg # of iterations =  5.0

     total cpu time spent up to now is       29.9 secs

     total energy              =     -54.94433942 Ry
     estimated scf accuracy    <       0.00000009 Ry

     iteration # 10     ecut=    95.00 Ry     beta= 0.50
     Davidson diagonalization with overlap
     ethr =  2.75E-10,  avg # of iterations =  3.0

     total cpu time spent up to now is       32.7 secs

     total energy              =     -54.94433943 Ry
     estimated scf accuracy    <          4.2E-09 Ry

     iteration # 11     ecut=    95.00 Ry     beta= 0.50
     Davidson diagonalization with overlap
     ethr =  1.30E-11,  avg # of iterations =  5.0

     total cpu time spent up to now is       36.2 secs

     total energy              =     -54.94433944 Ry
     estimated scf accuracy    <          9.2E-10 Ry

     iteration # 12     ecut=    95.00 Ry     beta= 0.50
     Davidson diagonalization with overlap
     ethr =  2.86E-12,  avg # of iterations =  3.0

     total cpu time spent up to now is       39.0 secs

     total energy              =     -54.94433944 Ry
     estimated scf accuracy    <          9.4E-11 Ry

     iteration # 13     ecut=    95.00 Ry     beta= 0.50
     Davidson diagonalization with overlap
     ethr =  2.93E-13,  avg # of iterations =  6.0

     total cpu time spent up to now is       42.6 secs

     total energy              =     -54.94433944 Ry
     estimated scf accuracy    <          7.7E-11 Ry

     iteration # 14     ecut=    95.00 Ry     beta= 0.50
     Davidson diagonalization with overlap
     ethr =  2.40E-13,  avg # of iterations =  3.0

     total cpu time spent up to now is       45.4 secs

     total energy              =     -54.94433944 Ry
     estimated scf accuracy    <          4.8E-12 Ry

     iteration # 15     ecut=    95.00 Ry     beta= 0.50
     Davidson diagonalization with overlap
     ethr =  1.00E-13,  avg # of iterations =  2.0

     total cpu time spent up to now is       48.1 secs

     total energy              =     -54.94433944 Ry
     estimated scf accuracy    <          4.4E-12 Ry

     iteration # 16     ecut=    95.00 Ry     beta= 0.50
     Davidson diagonalization with overlap
     ethr =  1.00E-13,  avg # of iterations =  1.0

     total cpu time spent up to now is       50.3 secs

     End of self-consistent calculation

          k = 0.0000 0.0000 0.0000 ( 62412 PWs)   bands (ev):

   -19.7306 -12.9169 -12.3800 -11.3426 -10.5706 -10.3803  -8.3377  -7.5983
    -7.5953  -6.9343  -6.7993  -6.6979  -6.2333  -6.0418  -5.7388  -2.2439

     highest occupied level (ev):    -2.2439

!    total energy              =     -54.94433944 Ry
     estimated scf accuracy    <          6.2E-13 Ry

     The total energy is the sum of the following terms:
     one-electron contribution =    -136.79792971 Ry
     hartree contribution      =      71.59433036 Ry
     xc contribution           =     -24.06604486 Ry
     ewald contribution        =      34.32530478 Ry

     convergence has been achieved in  16 iterations

     Forces acting on atoms (cartesian axes, Ry/au):

     atom    1 type  1   force =     0.00170400    0.27308021   -0.03508766
     atom    2 type  2   force =     0.00113369   -0.01275210    0.00421164
     atom    3 type  2   force =     0.45909996    3.61638934    0.03863720
     atom    4 type  2   force =    -0.00091860   -0.01443512    0.00571392
     atom    5 type  1   force =    -0.00064382    0.01924232   -0.02540505
     atom    6 type  1   force =     0.00022368   -0.00000035    0.02370508
     atom    7 type  2   force =    -0.00004144   -0.00329361   -0.00017579
     atom    8 type  2   force =     0.00003309   -0.00313077   -0.00025340
     atom    9 type  1   force =     0.00051174   -0.01922602   -0.02540900
     atom   10 type  2   force =     0.00005209   -0.00015638   -0.00029508
     atom   11 type  2   force =     0.00000320    0.00014595   -0.00045248
     atom   12 type  1   force =    -0.00208557   -0.27307722   -0.03505123
     atom   13 type  2   force =    -0.45892239   -3.61641426    0.04035086
     atom   14 type  2   force =     0.00095568    0.01439859    0.00569414
     atom   15 type  2   force =    -0.00109590    0.01280313    0.00424566
     atom   16 type  2   force =     0.00003304    0.00306802   -0.00018425
     atom   17 type  2   force =    -0.00004245    0.00335826   -0.00024457

     Total force =     5.170718     Total SCF correction =     0.000001

     Writing output data file ./Pentasilane.save/

     init_run     :      2.40s CPU      2.54s WALL (       1 calls)
     electrons    :     46.94s CPU     47.71s WALL (       1 calls)
     forces       :      1.66s CPU      1.73s WALL (       1 calls)

     Called by init_run:
     wfcinit      :      1.31s CPU      1.34s WALL (       1 calls)
     potinit      :      0.63s CPU      0.71s WALL (       1 calls)
     hinit0       :      0.23s CPU      0.25s WALL (       1 calls)

     Called by electrons:
     c_bands      :     32.38s CPU     32.60s WALL (      16 calls)
     sum_band     :      5.09s CPU      5.13s WALL (      16 calls)
     v_of_rho     :      7.51s CPU      8.03s WALL (      17 calls)
     mix_rho      :      2.18s CPU      2.21s WALL (      16 calls)

     Called by c_bands:
     init_us_2    :      0.64s CPU      0.66s WALL (      33 calls)
     regterg      :     31.05s CPU     31.26s WALL (      16 calls)

     Called by *egterg:
     rdiaghg      :      0.06s CPU      0.07s WALL (      69 calls)
     h_psi        :     27.52s CPU     27.70s WALL (      70 calls)
     g_psi        :      0.06s CPU      0.06s WALL (      53 calls)

     Called by h_psi:
     h_psi:calbec :      5.37s CPU      5.39s WALL (      70 calls)
     vloc_psi     :     17.67s CPU     17.81s WALL (      70 calls)
     add_vuspsi   :      4.36s CPU      4.37s WALL (      70 calls)

     General routines
     calbec       :      5.83s CPU      5.85s WALL (      74 calls)
     fft          :      5.17s CPU      5.29s WALL (     144 calls)
     ffts         :      0.58s CPU      0.59s WALL (      16 calls)
     fftw         :     16.94s CPU     17.06s WALL (     894 calls)

     Parallel routines

     PWSCF        :     51.10s CPU     52.13s WALL


   This run was terminated on:   2:39: 3  24May2021            

=------------------------------------------------------------------------------=
   JOB DONE.
=------------------------------------------------------------------------------=
