
     Program PWSCF v.6.7GPU starts on 24May2021 at  2:37:17 

     This program is part of the open-source Quantum ESPRESSO suite
     for quantum simulation of materials; please cite
         "P. Giannozzi et al., J. Phys.:Condens. Matter 21 395502 (2009);
         "P. Giannozzi et al., J. Phys.:Condens. Matter 29 465901 (2017);
         "P. Giannozzi et al., J. Chem. Phys. 152 154105 (2020);
          URL http://www.quantum-espresso.org", 
     in publications or presentations arising from this work. More details at
     http://www.quantum-espresso.org/quote

     Parallel version (MPI), running on     4 processors

     MPI processes distributed on     1 nodes
     R & G space division:  proc/nbgrp/npool/nimage =       4
     Waiting for input...
     Reading input from standard input
     Message from routine read_cards :
     DEPRECATED: no units specified in CELL_PARAMETERS card

     Current dimensions of program PWSCF are:
     Max number of different atomic species (ntypx) = 10
     Max number of k-points (npk) =  40000
     Max angular momentum in pseudopotentials (lmaxx) =  3

     gamma-point specific algorithms are used

     Subspace diagonalization in iterative solution of the eigenvalue problem:
     one sub-group per band group will be used
     scalapack distributed-memory algorithm (size of sub-group:  2*  2 procs)


     Parallelization info
     --------------------
     sticks:   dense  smooth     PW     G-vecs:    dense   smooth      PW
     Min        2862    2862    716               230578   230578   28824
     Max        2863    2863    718               230586   230586   28830
     Sum       11449   11449   2869               922329   922329  115313

     Using Slab Decomposition



     bravais-lattice index     =            0
     lattice parameter (alat)  =      20.0000  a.u.
     unit-cell volume          =    8000.0000 (a.u.)^3
     number of atoms/cell      =           17
     number of atomic types    =            2
     number of electrons       =        32.00
     number of Kohn-Sham states=           16
     kinetic-energy cutoff     =      90.0000  Ry
     charge density cutoff     =     360.0000  Ry
     scf convergence threshold =      1.0E-12
     mixing beta               =       0.5000
     number of iterations used =            8  plain     mixing
     Exchange-correlation= PBE
                           (   1   4   3   4   0   0   0)

     celldm(1)=  20.000000  celldm(2)=   0.000000  celldm(3)=   0.000000
     celldm(4)=   0.000000  celldm(5)=   0.000000  celldm(6)=   0.000000

     crystal axes: (cart. coord. in units of alat)
               a(1) = (   1.000000   0.000000   0.000000 )  
               a(2) = (   0.000000   1.000000   0.000000 )  
               a(3) = (   0.000000   0.000000   1.000000 )  

     reciprocal axes: (cart. coord. in units 2 pi/alat)
               b(1) = (  1.000000  0.000000  0.000000 )  
               b(2) = (  0.000000  1.000000  0.000000 )  
               b(3) = (  0.000000  0.000000  1.000000 )  


     PseudoPot. # 1 for Si read from file:
     /home/ciga/builds/pseudo_potentials/Si.upf
     MD5 check sum: d8e8ea3dd55db7858206a05f373c9c65
     Pseudo is Norm-conserving + core correction, Zval =  4.0
     Generated using ONCVPSP code by D. R. Hamann
     Using radial grid of 1528 points,  6 beta functions with: 
                l(1) =   0
                l(2) =   0
                l(3) =   1
                l(4) =   1
                l(5) =   2
                l(6) =   2

     PseudoPot. # 2 for H  read from file:
     /home/ciga/builds/pseudo_potentials/H.upf
     MD5 check sum: 418cee52d0c413ae40802e6cc37ab9e3
     Pseudo is Norm-conserving, Zval =  1.0
     Generated using ONCVPSP code by D. R. Hamann
     Using radial grid of 1166 points,  3 beta functions with: 
                l(1) =   0
                l(2) =   0
                l(3) =   1

     atomic species   valence    mass     pseudopotential
        Si             4.00    28.08550     Si( 1.00)
        H              1.00     1.00794     H ( 1.00)

     No symmetry found



   Cartesian axes

     site n.     atom                  positions (alat units)
         1           Si  tau(   1) = (  -0.0004567  -0.3682105  -0.0494961  )
         2           H   tau(   2) = (   0.1123231  -0.3697634  -0.1346666  )
         3           H   tau(   3) = (   0.0021164  -0.4846031   0.0307355  )
         4           H   tau(   4) = (  -0.1170251  -0.3711704  -0.1293415  )
         5           Si  tau(   5) = (   0.0009870  -0.1845978   0.0752964  )
         6           Si  tau(   6) = (  -0.0000383   0.0000012  -0.0481964  )
         7           H   tau(   7) = (  -0.1124773  -0.1838504   0.1600975  )
         8           H   tau(   8) = (   0.1161867  -0.1845228   0.1577288  )
         9           Si  tau(   9) = (  -0.0009920   0.1845953   0.0752987  )
        10           H   tau(  10) = (  -0.1142215  -0.0003236  -0.1320757  )
        11           H   tau(  11) = (   0.1142196   0.0003503  -0.1319474  )
        12           Si  tau(  12) = (   0.0004908   0.3682099  -0.0494965  )
        13           H   tau(  13) = (  -0.0018088   0.4846029   0.0307427  )
        14           H   tau(  14) = (   0.1169488   0.3709770  -0.1295157  )
        15           H   tau(  15) = (  -0.1124097   0.3699713  -0.1344976  )
        16           H   tau(  16) = (   0.1125350   0.1842188   0.1600196  )
        17           H   tau(  17) = (  -0.1161321   0.1841651   0.1578115  )

     number of k points=     1
                       cart. coord. in units 2pi/alat
        k(    1) = (   0.0000000   0.0000000   0.0000000), wk =   2.0000000

     Dense  grid:   461165 G-vectors     FFT dimensions: ( 125, 125, 125)

     Estimated max dynamical RAM per process >     139.46 MB

     Estimated total dynamical RAM >     557.84 MB

     Initial potential from superposition of free atoms

     starting charge   31.99682, renormalised to   32.00000

     negative rho (up, down):  1.111E-06 0.000E+00
     Starting wfcs are   32 randomized atomic wfcs

     total cpu time spent up to now is        2.5 secs

     Self-consistent Calculation

     iteration #  1     ecut=    90.00 Ry     beta= 0.50
     Davidson diagonalization with overlap
     ethr =  1.00E-02,  avg # of iterations =  3.0

     total cpu time spent up to now is        5.5 secs

     total energy              =     -54.95400246 Ry
     estimated scf accuracy    <       0.99983955 Ry

     iteration #  2     ecut=    90.00 Ry     beta= 0.50
     Davidson diagonalization with overlap
     ethr =  3.12E-03,  avg # of iterations =  2.0

     total cpu time spent up to now is        7.8 secs

     total energy              =     -54.91508391 Ry
     estimated scf accuracy    <       0.17401818 Ry

     iteration #  3     ecut=    90.00 Ry     beta= 0.50
     Davidson diagonalization with overlap
     ethr =  5.44E-04,  avg # of iterations =  2.0

     total cpu time spent up to now is       10.6 secs

     total energy              =     -54.94215257 Ry
     estimated scf accuracy    <       0.00600086 Ry

     iteration #  4     ecut=    90.00 Ry     beta= 0.50
     Davidson diagonalization with overlap
     ethr =  1.88E-05,  avg # of iterations =  5.0

     total cpu time spent up to now is       13.7 secs

     total energy              =     -54.94412679 Ry
     estimated scf accuracy    <       0.00112125 Ry

     iteration #  5     ecut=    90.00 Ry     beta= 0.50
     Davidson diagonalization with overlap
     ethr =  3.50E-06,  avg # of iterations =  2.0

     total cpu time spent up to now is       16.4 secs

     total energy              =     -54.94430085 Ry
     estimated scf accuracy    <       0.00006586 Ry

     iteration #  6     ecut=    90.00 Ry     beta= 0.50
     Davidson diagonalization with overlap
     ethr =  2.06E-07,  avg # of iterations =  5.0

     total cpu time spent up to now is       19.7 secs

     total energy              =     -54.94432132 Ry
     estimated scf accuracy    <       0.00001180 Ry

     iteration #  7     ecut=    90.00 Ry     beta= 0.50
     Davidson diagonalization with overlap
     ethr =  3.69E-08,  avg # of iterations =  3.0

     total cpu time spent up to now is       22.8 secs

     total energy              =     -54.94432314 Ry
     estimated scf accuracy    <       0.00000739 Ry

     iteration #  8     ecut=    90.00 Ry     beta= 0.50
     Davidson diagonalization with overlap
     ethr =  2.31E-08,  avg # of iterations =  3.0

     total cpu time spent up to now is       25.5 secs

     total energy              =     -54.94432419 Ry
     estimated scf accuracy    <       0.00000043 Ry

     iteration #  9     ecut=    90.00 Ry     beta= 0.50
     Davidson diagonalization with overlap
     ethr =  1.34E-09,  avg # of iterations =  5.0

     total cpu time spent up to now is       28.8 secs

     total energy              =     -54.94432435 Ry
     estimated scf accuracy    <       0.00000008 Ry

     iteration # 10     ecut=    90.00 Ry     beta= 0.50
     Davidson diagonalization with overlap
     ethr =  2.37E-10,  avg # of iterations =  4.0

     total cpu time spent up to now is       31.7 secs

     total energy              =     -54.94432436 Ry
     estimated scf accuracy    <          9.4E-09 Ry

     iteration # 11     ecut=    90.00 Ry     beta= 0.50
     Davidson diagonalization with overlap
     ethr =  2.93E-11,  avg # of iterations =  4.0

     total cpu time spent up to now is       34.8 secs

     total energy              =     -54.94432437 Ry
     estimated scf accuracy    <          1.7E-09 Ry

     iteration # 12     ecut=    90.00 Ry     beta= 0.50
     Davidson diagonalization with overlap
     ethr =  5.16E-12,  avg # of iterations =  2.0

     total cpu time spent up to now is       37.3 secs

     total energy              =     -54.94432437 Ry
     estimated scf accuracy    <          2.9E-10 Ry

     iteration # 13     ecut=    90.00 Ry     beta= 0.50
     Davidson diagonalization with overlap
     ethr =  8.92E-13,  avg # of iterations =  5.0

     total cpu time spent up to now is       40.7 secs

     total energy              =     -54.94432437 Ry
     estimated scf accuracy    <          2.4E-10 Ry

     iteration # 14     ecut=    90.00 Ry     beta= 0.50
     Davidson diagonalization with overlap
     ethr =  7.55E-13,  avg # of iterations =  2.0

     total cpu time spent up to now is       43.2 secs

     total energy              =     -54.94432437 Ry
     estimated scf accuracy    <          3.1E-11 Ry

     iteration # 15     ecut=    90.00 Ry     beta= 0.50
     Davidson diagonalization with overlap
     ethr =  1.00E-13,  avg # of iterations =  5.0

     total cpu time spent up to now is       46.5 secs

     total energy              =     -54.94432437 Ry
     estimated scf accuracy    <          1.4E-11 Ry

     iteration # 16     ecut=    90.00 Ry     beta= 0.50
     Davidson diagonalization with overlap
     ethr =  1.00E-13,  avg # of iterations =  2.0

     total cpu time spent up to now is       48.9 secs

     total energy              =     -54.94432437 Ry
     estimated scf accuracy    <          1.2E-12 Ry

     iteration # 17     ecut=    90.00 Ry     beta= 0.50
     Davidson diagonalization with overlap
     ethr =  1.00E-13,  avg # of iterations =  2.0

     total cpu time spent up to now is       51.1 secs

     End of self-consistent calculation

          k = 0.0000 0.0000 0.0000 ( 57657 PWs)   bands (ev):

   -19.7306 -12.9169 -12.3800 -11.3426 -10.5706 -10.3803  -8.3377  -7.5983
    -7.5953  -6.9343  -6.7993  -6.6979  -6.2333  -6.0418  -5.7388  -2.2439

     highest occupied level (ev):    -2.2439

!    total energy              =     -54.94432437 Ry
     estimated scf accuracy    <          4.4E-13 Ry

     The total energy is the sum of the following terms:
     one-electron contribution =    -136.79790883 Ry
     hartree contribution      =      71.59432040 Ry
     xc contribution           =     -24.06604072 Ry
     ewald contribution        =      34.32530478 Ry

     convergence has been achieved in  17 iterations

     Forces acting on atoms (cartesian axes, Ry/au):

     atom    1 type  1   force =     0.00170390    0.27308059   -0.03508762
     atom    2 type  2   force =     0.00113388   -0.01275206    0.00421151
     atom    3 type  2   force =     0.45910338    3.61641606    0.03863775
     atom    4 type  2   force =    -0.00091876   -0.01443509    0.00571381
     atom    5 type  1   force =    -0.00064382    0.01924222   -0.02540531
     atom    6 type  1   force =     0.00022368   -0.00000030    0.02370539
     atom    7 type  2   force =    -0.00004166   -0.00329353   -0.00017574
     atom    8 type  2   force =     0.00003332   -0.00313070   -0.00025334
     atom    9 type  1   force =     0.00051175   -0.01922603   -0.02540942
     atom   10 type  2   force =     0.00005197   -0.00015639   -0.00029512
     atom   11 type  2   force =     0.00000332    0.00014595   -0.00045251
     atom   12 type  1   force =    -0.00208554   -0.27307775   -0.03505154
     atom   13 type  2   force =    -0.45892581   -3.61644078    0.04035134
     atom   14 type  2   force =     0.00095587    0.01439856    0.00569400
     atom   15 type  2   force =    -0.00109611    0.01280310    0.00424548
     atom   16 type  2   force =     0.00003326    0.00306795   -0.00018417
     atom   17 type  2   force =    -0.00004266    0.00335819   -0.00024449

     Total force =     5.170756     Total SCF correction =     0.000001

     Writing output data file ./Pentasilane.save/

     init_run     :      2.27s CPU      2.41s WALL (       1 calls)
     electrons    :     47.74s CPU     48.60s WALL (       1 calls)
     forces       :      1.55s CPU      1.64s WALL (       1 calls)

     Called by init_run:
     wfcinit      :      1.24s CPU      1.27s WALL (       1 calls)
     potinit      :      0.62s CPU      0.69s WALL (       1 calls)
     hinit0       :      0.23s CPU      0.25s WALL (       1 calls)

     Called by electrons:
     c_bands      :     32.73s CPU     32.94s WALL (      17 calls)
     sum_band     :      5.22s CPU      5.26s WALL (      17 calls)
     v_of_rho     :      7.79s CPU      8.42s WALL (      18 calls)
     mix_rho      :      2.21s CPU      2.23s WALL (      17 calls)

     Called by c_bands:
     init_us_2    :      0.64s CPU      0.66s WALL (      35 calls)
     regterg      :     31.41s CPU     31.62s WALL (      17 calls)

     Called by *egterg:
     rdiaghg      :      0.07s CPU      0.07s WALL (      73 calls)
     h_psi        :     27.82s CPU     28.01s WALL (      74 calls)
     g_psi        :      0.06s CPU      0.06s WALL (      56 calls)

     Called by h_psi:
     h_psi:calbec :      5.21s CPU      5.23s WALL (      74 calls)
     vloc_psi     :     18.25s CPU     18.40s WALL (      74 calls)
     add_vuspsi   :      4.24s CPU      4.25s WALL (      74 calls)

     General routines
     calbec       :      5.63s CPU      5.66s WALL (      78 calls)
     fft          :      5.33s CPU      5.44s WALL (     152 calls)
     ffts         :      0.60s CPU      0.60s WALL (      17 calls)
     fftw         :     17.47s CPU     17.61s WALL (     954 calls)

     Parallel routines

     PWSCF        :     51.67s CPU     52.78s WALL


   This run was terminated on:   2:38:10  24May2021            

=------------------------------------------------------------------------------=
   JOB DONE.
=------------------------------------------------------------------------------=
