
     Program PWSCF v.6.7GPU starts on 24May2021 at  2:33:16 

     This program is part of the open-source Quantum ESPRESSO suite
     for quantum simulation of materials; please cite
         "P. Giannozzi et al., J. Phys.:Condens. Matter 21 395502 (2009);
         "P. Giannozzi et al., J. Phys.:Condens. Matter 29 465901 (2017);
         "P. Giannozzi et al., J. Chem. Phys. 152 154105 (2020);
          URL http://www.quantum-espresso.org", 
     in publications or presentations arising from this work. More details at
     http://www.quantum-espresso.org/quote

     Parallel version (MPI), running on     4 processors

     MPI processes distributed on     1 nodes
     R & G space division:  proc/nbgrp/npool/nimage =       4
     Waiting for input...
     Reading input from standard input
     Message from routine read_cards :
     DEPRECATED: no units specified in CELL_PARAMETERS card

     Current dimensions of program PWSCF are:
     Max number of different atomic species (ntypx) = 10
     Max number of k-points (npk) =  40000
     Max angular momentum in pseudopotentials (lmaxx) =  3

     gamma-point specific algorithms are used

     Subspace diagonalization in iterative solution of the eigenvalue problem:
     one sub-group per band group will be used
     scalapack distributed-memory algorithm (size of sub-group:  2*  2 procs)


     Parallelization info
     --------------------
     sticks:   dense  smooth     PW     G-vecs:    dense   smooth      PW
     Min        1753    1753    438               110351   110351   13793
     Max        1756    1756    440               110356   110356   13796
     Sum        7017    7017   1757               441415   441415   55179

     Using Slab Decomposition



     bravais-lattice index     =            0
     lattice parameter (alat)  =      20.0000  a.u.
     unit-cell volume          =    8000.0000 (a.u.)^3
     number of atoms/cell      =           17
     number of atomic types    =            2
     number of electrons       =        32.00
     number of Kohn-Sham states=           16
     kinetic-energy cutoff     =      55.0000  Ry
     charge density cutoff     =     220.0000  Ry
     scf convergence threshold =      1.0E-12
     mixing beta               =       0.5000
     number of iterations used =            8  plain     mixing
     Exchange-correlation= PBE
                           (   1   4   3   4   0   0   0)

     celldm(1)=  20.000000  celldm(2)=   0.000000  celldm(3)=   0.000000
     celldm(4)=   0.000000  celldm(5)=   0.000000  celldm(6)=   0.000000

     crystal axes: (cart. coord. in units of alat)
               a(1) = (   1.000000   0.000000   0.000000 )  
               a(2) = (   0.000000   1.000000   0.000000 )  
               a(3) = (   0.000000   0.000000   1.000000 )  

     reciprocal axes: (cart. coord. in units 2 pi/alat)
               b(1) = (  1.000000  0.000000  0.000000 )  
               b(2) = (  0.000000  1.000000  0.000000 )  
               b(3) = (  0.000000  0.000000  1.000000 )  


     PseudoPot. # 1 for Si read from file:
     /home/ciga/builds/pseudo_potentials/Si.upf
     MD5 check sum: d8e8ea3dd55db7858206a05f373c9c65
     Pseudo is Norm-conserving + core correction, Zval =  4.0
     Generated using ONCVPSP code by D. R. Hamann
     Using radial grid of 1528 points,  6 beta functions with: 
                l(1) =   0
                l(2) =   0
                l(3) =   1
                l(4) =   1
                l(5) =   2
                l(6) =   2

     PseudoPot. # 2 for H  read from file:
     /home/ciga/builds/pseudo_potentials/H.upf
     MD5 check sum: 418cee52d0c413ae40802e6cc37ab9e3
     Pseudo is Norm-conserving, Zval =  1.0
     Generated using ONCVPSP code by D. R. Hamann
     Using radial grid of 1166 points,  3 beta functions with: 
                l(1) =   0
                l(2) =   0
                l(3) =   1

     atomic species   valence    mass     pseudopotential
        Si             4.00    28.08550     Si( 1.00)
        H              1.00     1.00794     H ( 1.00)

     No symmetry found



   Cartesian axes

     site n.     atom                  positions (alat units)
         1           Si  tau(   1) = (  -0.0004567  -0.3682105  -0.0494961  )
         2           H   tau(   2) = (   0.1123231  -0.3697634  -0.1346666  )
         3           H   tau(   3) = (   0.0021164  -0.4846031   0.0307355  )
         4           H   tau(   4) = (  -0.1170251  -0.3711704  -0.1293415  )
         5           Si  tau(   5) = (   0.0009870  -0.1845978   0.0752964  )
         6           Si  tau(   6) = (  -0.0000383   0.0000012  -0.0481964  )
         7           H   tau(   7) = (  -0.1124773  -0.1838504   0.1600975  )
         8           H   tau(   8) = (   0.1161867  -0.1845228   0.1577288  )
         9           Si  tau(   9) = (  -0.0009920   0.1845953   0.0752987  )
        10           H   tau(  10) = (  -0.1142215  -0.0003236  -0.1320757  )
        11           H   tau(  11) = (   0.1142196   0.0003503  -0.1319474  )
        12           Si  tau(  12) = (   0.0004908   0.3682099  -0.0494965  )
        13           H   tau(  13) = (  -0.0018088   0.4846029   0.0307427  )
        14           H   tau(  14) = (   0.1169488   0.3709770  -0.1295157  )
        15           H   tau(  15) = (  -0.1124097   0.3699713  -0.1344976  )
        16           H   tau(  16) = (   0.1125350   0.1842188   0.1600196  )
        17           H   tau(  17) = (  -0.1161321   0.1841651   0.1578115  )

     number of k points=     1
                       cart. coord. in units 2pi/alat
        k(    1) = (   0.0000000   0.0000000   0.0000000), wk =   2.0000000

     Dense  grid:   220708 G-vectors     FFT dimensions: (  96,  96,  96)

     Estimated max dynamical RAM per process >      66.39 MB

     Estimated total dynamical RAM >     265.58 MB

     Initial potential from superposition of free atoms

     starting charge   31.99682, renormalised to   32.00000

     negative rho (up, down):  1.814E-04 0.000E+00
     Starting wfcs are   32 randomized atomic wfcs

     total cpu time spent up to now is        1.2 secs

     Self-consistent Calculation

     iteration #  1     ecut=    55.00 Ry     beta= 0.50
     Davidson diagonalization with overlap
     ethr =  1.00E-02,  avg # of iterations =  3.0

     negative rho (up, down):  6.571E-05 0.000E+00

     total cpu time spent up to now is        2.4 secs

     total energy              =     -54.94793860 Ry
     estimated scf accuracy    <       0.99774595 Ry

     iteration #  2     ecut=    55.00 Ry     beta= 0.50
     Davidson diagonalization with overlap
     ethr =  3.12E-03,  avg # of iterations =  2.0

     negative rho (up, down):  3.649E-06 0.000E+00

     total cpu time spent up to now is        3.4 secs

     total energy              =     -54.90984233 Ry
     estimated scf accuracy    <       0.17328118 Ry

     iteration #  3     ecut=    55.00 Ry     beta= 0.50
     Davidson diagonalization with overlap
     ethr =  5.42E-04,  avg # of iterations =  2.0

     negative rho (up, down):  2.004E-06 0.000E+00

     total cpu time spent up to now is        4.6 secs

     total energy              =     -54.93664065 Ry
     estimated scf accuracy    <       0.00581342 Ry

     iteration #  4     ecut=    55.00 Ry     beta= 0.50
     Davidson diagonalization with overlap
     ethr =  1.82E-05,  avg # of iterations =  5.0

     negative rho (up, down):  6.714E-08 0.000E+00

     total cpu time spent up to now is        5.9 secs

     total energy              =     -54.93858477 Ry
     estimated scf accuracy    <       0.00097612 Ry

     iteration #  5     ecut=    55.00 Ry     beta= 0.50
     Davidson diagonalization with overlap
     ethr =  3.05E-06,  avg # of iterations =  2.0

     total cpu time spent up to now is        7.0 secs

     total energy              =     -54.93873035 Ry
     estimated scf accuracy    <       0.00006071 Ry

     iteration #  6     ecut=    55.00 Ry     beta= 0.50
     Davidson diagonalization with overlap
     ethr =  1.90E-07,  avg # of iterations =  5.0

     total cpu time spent up to now is        8.4 secs

     total energy              =     -54.93874968 Ry
     estimated scf accuracy    <       0.00001446 Ry

     iteration #  7     ecut=    55.00 Ry     beta= 0.50
     Davidson diagonalization with overlap
     ethr =  4.52E-08,  avg # of iterations =  4.0

     total cpu time spent up to now is        9.7 secs

     total energy              =     -54.93875223 Ry
     estimated scf accuracy    <       0.00000688 Ry

     iteration #  8     ecut=    55.00 Ry     beta= 0.50
     Davidson diagonalization with overlap
     ethr =  2.15E-08,  avg # of iterations =  2.0

     total cpu time spent up to now is       10.7 secs

     total energy              =     -54.93875312 Ry
     estimated scf accuracy    <       0.00000031 Ry

     iteration #  9     ecut=    55.00 Ry     beta= 0.50
     Davidson diagonalization with overlap
     ethr =  9.71E-10,  avg # of iterations =  5.0

     total cpu time spent up to now is       12.1 secs

     total energy              =     -54.93875328 Ry
     estimated scf accuracy    <       0.00000011 Ry

     iteration # 10     ecut=    55.00 Ry     beta= 0.50
     Davidson diagonalization with overlap
     ethr =  3.30E-10,  avg # of iterations =  3.0

     total cpu time spent up to now is       13.3 secs

     total energy              =     -54.93875330 Ry
     estimated scf accuracy    <          7.4E-09 Ry

     iteration # 11     ecut=    55.00 Ry     beta= 0.50
     Davidson diagonalization with overlap
     ethr =  2.31E-11,  avg # of iterations =  7.0

     total cpu time spent up to now is       14.6 secs

     total energy              =     -54.93875330 Ry
     estimated scf accuracy    <          3.7E-09 Ry

     iteration # 12     ecut=    55.00 Ry     beta= 0.50
     Davidson diagonalization with overlap
     ethr =  1.16E-11,  avg # of iterations =  8.0

     total cpu time spent up to now is       15.8 secs

     total energy              =     -54.93875330 Ry
     estimated scf accuracy    <          1.7E-09 Ry

     iteration # 13     ecut=    55.00 Ry     beta= 0.50
     Davidson diagonalization with overlap
     ethr =  5.25E-12,  avg # of iterations =  3.0

     total cpu time spent up to now is       16.9 secs

     total energy              =     -54.93875330 Ry
     estimated scf accuracy    <          6.0E-10 Ry

     iteration # 14     ecut=    55.00 Ry     beta= 0.50
     Davidson diagonalization with overlap
     ethr =  1.87E-12,  avg # of iterations =  7.0

     total cpu time spent up to now is       18.0 secs

     total energy              =     -54.93875330 Ry
     estimated scf accuracy    <          7.9E-11 Ry

     iteration # 15     ecut=    55.00 Ry     beta= 0.50
     Davidson diagonalization with overlap
     ethr =  2.48E-13,  avg # of iterations =  8.0

     total cpu time spent up to now is       19.3 secs

     total energy              =     -54.93875330 Ry
     estimated scf accuracy    <          1.3E-11 Ry

     iteration # 16     ecut=    55.00 Ry     beta= 0.50
     Davidson diagonalization with overlap
     ethr =  1.00E-13,  avg # of iterations =  6.0

     total cpu time spent up to now is       20.4 secs

     total energy              =     -54.93875330 Ry
     estimated scf accuracy    <          1.3E-12 Ry

     iteration # 17     ecut=    55.00 Ry     beta= 0.50
     Davidson diagonalization with overlap
     ethr =  1.00E-13,  avg # of iterations =  1.0

     total cpu time spent up to now is       21.3 secs

     End of self-consistent calculation

          k = 0.0000 0.0000 0.0000 ( 27590 PWs)   bands (ev):

   -19.7281 -12.9164 -12.3796 -11.3415 -10.5700 -10.3798  -8.3368  -7.5973
    -7.5944  -6.9331  -6.7982  -6.6974  -6.2325  -6.0410  -5.7382  -2.2438

     highest occupied level (ev):    -2.2438

!    total energy              =     -54.93875330 Ry
     estimated scf accuracy    <          3.9E-13 Ry

     The total energy is the sum of the following terms:
     one-electron contribution =    -136.79063605 Ry
     hartree contribution      =      71.59005143 Ry
     xc contribution           =     -24.06347345 Ry
     ewald contribution        =      34.32530477 Ry

     convergence has been achieved in  17 iterations

     Forces acting on atoms (cartesian axes, Ry/au):

     atom    1 type  1   force =     0.00170462    0.27312794   -0.03496992
     atom    2 type  2   force =     0.00125357   -0.01274441    0.00411514
     atom    3 type  2   force =     0.45989345    3.62263489    0.03870051
     atom    4 type  2   force =    -0.00104518   -0.01442752    0.00562310
     atom    5 type  1   force =    -0.00064514    0.01923990   -0.02557560
     atom    6 type  1   force =     0.00022347   -0.00000036    0.02387746
     atom    7 type  2   force =    -0.00016078   -0.00329172   -0.00008430
     atom    8 type  2   force =     0.00015556   -0.00312969   -0.00016544
     atom    9 type  1   force =     0.00051301   -0.01922365   -0.02557964
     atom   10 type  2   force =    -0.00006852   -0.00015675   -0.00038518
     atom   11 type  2   force =     0.00012400    0.00014636   -0.00054247
     atom   12 type  1   force =    -0.00208612   -0.27312521   -0.03493369
     atom   13 type  2   force =    -0.45971570   -3.62265951    0.04041697
     atom   14 type  2   force =     0.00108209    0.01439096    0.00560308
     atom   15 type  2   force =    -0.00121593    0.01279544    0.00414933
     atom   16 type  2   force =     0.00015245    0.00306658   -0.00009283
     atom   17 type  2   force =    -0.00016483    0.00335675   -0.00015651

     Total force =     5.179601     Total SCF correction =     0.000001

     Writing output data file ./Pentasilane.save/

     init_run     :      1.02s CPU      1.07s WALL (       1 calls)
     electrons    :     19.75s CPU     20.13s WALL (       1 calls)
     forces       :      0.77s CPU      0.79s WALL (       1 calls)

     Called by init_run:
     wfcinit      :      0.50s CPU      0.52s WALL (       1 calls)
     potinit      :      0.32s CPU      0.34s WALL (       1 calls)
     hinit0       :      0.12s CPU      0.13s WALL (       1 calls)

     Called by electrons:
     c_bands      :     13.08s CPU     13.18s WALL (      17 calls)
     sum_band     :      2.21s CPU      2.23s WALL (      17 calls)
     v_of_rho     :      3.55s CPU      3.80s WALL (      18 calls)
     mix_rho      :      0.97s CPU      0.99s WALL (      17 calls)

     Called by c_bands:
     init_us_2    :      0.29s CPU      0.30s WALL (      35 calls)
     regterg      :     12.47s CPU     12.57s WALL (      17 calls)

     Called by *egterg:
     rdiaghg      :      0.07s CPU      0.07s WALL (      90 calls)
     h_psi        :     10.99s CPU     11.10s WALL (      91 calls)
     g_psi        :      0.02s CPU      0.02s WALL (      73 calls)

     Called by h_psi:
     h_psi:calbec :      2.43s CPU      2.44s WALL (      91 calls)
     vloc_psi     :      6.65s CPU      6.74s WALL (      91 calls)
     add_vuspsi   :      1.85s CPU      1.86s WALL (      91 calls)

     General routines
     calbec       :      2.63s CPU      2.64s WALL (      95 calls)
     fft          :      2.39s CPU      2.44s WALL (     152 calls)
     ffts         :      0.26s CPU      0.26s WALL (      17 calls)
     fftw         :      6.27s CPU      6.33s WALL (     946 calls)

     Parallel routines

     PWSCF        :     21.64s CPU     22.10s WALL


   This run was terminated on:   2:33:38  24May2021            

=------------------------------------------------------------------------------=
   JOB DONE.
=------------------------------------------------------------------------------=
