
     Program PWSCF v.6.7GPU starts on 24May2021 at  2:36:35 

     This program is part of the open-source Quantum ESPRESSO suite
     for quantum simulation of materials; please cite
         "P. Giannozzi et al., J. Phys.:Condens. Matter 21 395502 (2009);
         "P. Giannozzi et al., J. Phys.:Condens. Matter 29 465901 (2017);
         "P. Giannozzi et al., J. Chem. Phys. 152 154105 (2020);
          URL http://www.quantum-espresso.org", 
     in publications or presentations arising from this work. More details at
     http://www.quantum-espresso.org/quote

     Parallel version (MPI), running on     4 processors

     MPI processes distributed on     1 nodes
     R & G space division:  proc/nbgrp/npool/nimage =       4
     Waiting for input...
     Reading input from standard input
     Message from routine read_cards :
     DEPRECATED: no units specified in CELL_PARAMETERS card

     Current dimensions of program PWSCF are:
     Max number of different atomic species (ntypx) = 10
     Max number of k-points (npk) =  40000
     Max angular momentum in pseudopotentials (lmaxx) =  3

     gamma-point specific algorithms are used

     Subspace diagonalization in iterative solution of the eigenvalue problem:
     one sub-group per band group will be used
     scalapack distributed-memory algorithm (size of sub-group:  2*  2 procs)


     Parallelization info
     --------------------
     sticks:   dense  smooth     PW     G-vecs:    dense   smooth      PW
     Min        2700    2700    675               211636   211636   26505
     Max        2704    2704    678               211641   211641   26514
     Sum       10805   10805   2709               846553   846553  106047

     Using Slab Decomposition



     bravais-lattice index     =            0
     lattice parameter (alat)  =      20.0000  a.u.
     unit-cell volume          =    8000.0000 (a.u.)^3
     number of atoms/cell      =           17
     number of atomic types    =            2
     number of electrons       =        32.00
     number of Kohn-Sham states=           16
     kinetic-energy cutoff     =      85.0000  Ry
     charge density cutoff     =     340.0000  Ry
     scf convergence threshold =      1.0E-12
     mixing beta               =       0.5000
     number of iterations used =            8  plain     mixing
     Exchange-correlation= PBE
                           (   1   4   3   4   0   0   0)

     celldm(1)=  20.000000  celldm(2)=   0.000000  celldm(3)=   0.000000
     celldm(4)=   0.000000  celldm(5)=   0.000000  celldm(6)=   0.000000

     crystal axes: (cart. coord. in units of alat)
               a(1) = (   1.000000   0.000000   0.000000 )  
               a(2) = (   0.000000   1.000000   0.000000 )  
               a(3) = (   0.000000   0.000000   1.000000 )  

     reciprocal axes: (cart. coord. in units 2 pi/alat)
               b(1) = (  1.000000  0.000000  0.000000 )  
               b(2) = (  0.000000  1.000000  0.000000 )  
               b(3) = (  0.000000  0.000000  1.000000 )  


     PseudoPot. # 1 for Si read from file:
     /home/ciga/builds/pseudo_potentials/Si.upf
     MD5 check sum: d8e8ea3dd55db7858206a05f373c9c65
     Pseudo is Norm-conserving + core correction, Zval =  4.0
     Generated using ONCVPSP code by D. R. Hamann
     Using radial grid of 1528 points,  6 beta functions with: 
                l(1) =   0
                l(2) =   0
                l(3) =   1
                l(4) =   1
                l(5) =   2
                l(6) =   2

     PseudoPot. # 2 for H  read from file:
     /home/ciga/builds/pseudo_potentials/H.upf
     MD5 check sum: 418cee52d0c413ae40802e6cc37ab9e3
     Pseudo is Norm-conserving, Zval =  1.0
     Generated using ONCVPSP code by D. R. Hamann
     Using radial grid of 1166 points,  3 beta functions with: 
                l(1) =   0
                l(2) =   0
                l(3) =   1

     atomic species   valence    mass     pseudopotential
        Si             4.00    28.08550     Si( 1.00)
        H              1.00     1.00794     H ( 1.00)

     No symmetry found



   Cartesian axes

     site n.     atom                  positions (alat units)
         1           Si  tau(   1) = (  -0.0004567  -0.3682105  -0.0494961  )
         2           H   tau(   2) = (   0.1123231  -0.3697634  -0.1346666  )
         3           H   tau(   3) = (   0.0021164  -0.4846031   0.0307355  )
         4           H   tau(   4) = (  -0.1170251  -0.3711704  -0.1293415  )
         5           Si  tau(   5) = (   0.0009870  -0.1845978   0.0752964  )
         6           Si  tau(   6) = (  -0.0000383   0.0000012  -0.0481964  )
         7           H   tau(   7) = (  -0.1124773  -0.1838504   0.1600975  )
         8           H   tau(   8) = (   0.1161867  -0.1845228   0.1577288  )
         9           Si  tau(   9) = (  -0.0009920   0.1845953   0.0752987  )
        10           H   tau(  10) = (  -0.1142215  -0.0003236  -0.1320757  )
        11           H   tau(  11) = (   0.1142196   0.0003503  -0.1319474  )
        12           Si  tau(  12) = (   0.0004908   0.3682099  -0.0494965  )
        13           H   tau(  13) = (  -0.0018088   0.4846029   0.0307427  )
        14           H   tau(  14) = (   0.1169488   0.3709770  -0.1295157  )
        15           H   tau(  15) = (  -0.1124097   0.3699713  -0.1344976  )
        16           H   tau(  16) = (   0.1125350   0.1842188   0.1600196  )
        17           H   tau(  17) = (  -0.1161321   0.1841651   0.1578115  )

     number of k points=     1
                       cart. coord. in units 2pi/alat
        k(    1) = (   0.0000000   0.0000000   0.0000000), wk =   2.0000000

     Dense  grid:   423277 G-vectors     FFT dimensions: ( 120, 120, 120)

     Estimated max dynamical RAM per process >     126.32 MB

     Estimated total dynamical RAM >     505.27 MB

     Initial potential from superposition of free atoms

     starting charge   31.99682, renormalised to   32.00000

     negative rho (up, down):  3.656E-07 0.000E+00
     Starting wfcs are   32 randomized atomic wfcs

     total cpu time spent up to now is        2.2 secs

     Self-consistent Calculation

     iteration #  1     ecut=    85.00 Ry     beta= 0.50
     Davidson diagonalization with overlap
     ethr =  1.00E-02,  avg # of iterations =  3.0

     total cpu time spent up to now is        4.9 secs

     total energy              =     -54.95375803 Ry
     estimated scf accuracy    <       1.00029040 Ry

     iteration #  2     ecut=    85.00 Ry     beta= 0.50
     Davidson diagonalization with overlap
     ethr =  3.13E-03,  avg # of iterations =  2.0

     total cpu time spent up to now is        6.9 secs

     total energy              =     -54.91526013 Ry
     estimated scf accuracy    <       0.17391237 Ry

     iteration #  3     ecut=    85.00 Ry     beta= 0.50
     Davidson diagonalization with overlap
     ethr =  5.43E-04,  avg # of iterations =  2.0

     total cpu time spent up to now is        9.2 secs

     total energy              =     -54.94221057 Ry
     estimated scf accuracy    <       0.00590563 Ry

     iteration #  4     ecut=    85.00 Ry     beta= 0.50
     Davidson diagonalization with overlap
     ethr =  1.85E-05,  avg # of iterations =  4.0

     total cpu time spent up to now is       11.9 secs

     total energy              =     -54.94412317 Ry
     estimated scf accuracy    <       0.00096027 Ry

     iteration #  5     ecut=    85.00 Ry     beta= 0.50
     Davidson diagonalization with overlap
     ethr =  3.00E-06,  avg # of iterations =  4.0

     total cpu time spent up to now is       14.4 secs

     total energy              =     -54.94428625 Ry
     estimated scf accuracy    <       0.00006497 Ry

     iteration #  6     ecut=    85.00 Ry     beta= 0.50
     Davidson diagonalization with overlap
     ethr =  2.03E-07,  avg # of iterations =  4.0

     total cpu time spent up to now is       17.0 secs

     total energy              =     -54.94430211 Ry
     estimated scf accuracy    <       0.00001237 Ry

     iteration #  7     ecut=    85.00 Ry     beta= 0.50
     Davidson diagonalization with overlap
     ethr =  3.86E-08,  avg # of iterations =  3.0

     total cpu time spent up to now is       19.5 secs

     total energy              =     -54.94430384 Ry
     estimated scf accuracy    <       0.00000191 Ry

     iteration #  8     ecut=    85.00 Ry     beta= 0.50
     Davidson diagonalization with overlap
     ethr =  5.98E-09,  avg # of iterations =  4.0

     total cpu time spent up to now is       22.1 secs

     total energy              =     -54.94430425 Ry
     estimated scf accuracy    <       0.00000031 Ry

     iteration #  9     ecut=    85.00 Ry     beta= 0.50
     Davidson diagonalization with overlap
     ethr =  9.59E-10,  avg # of iterations =  4.0

     total cpu time spent up to now is       24.8 secs

     total energy              =     -54.94430434 Ry
     estimated scf accuracy    <       0.00000006 Ry

     iteration # 10     ecut=    85.00 Ry     beta= 0.50
     Davidson diagonalization with overlap
     ethr =  1.98E-10,  avg # of iterations =  2.0

     total cpu time spent up to now is       27.0 secs

     total energy              =     -54.94430434 Ry
     estimated scf accuracy    <       0.00000001 Ry

     iteration # 11     ecut=    85.00 Ry     beta= 0.50
     Davidson diagonalization with overlap
     ethr =  3.44E-11,  avg # of iterations =  8.0

     total cpu time spent up to now is       29.9 secs

     total energy              =     -54.94430434 Ry
     estimated scf accuracy    <          3.4E-09 Ry

     iteration # 12     ecut=    85.00 Ry     beta= 0.50
     Davidson diagonalization with overlap
     ethr =  1.05E-11,  avg # of iterations =  6.0

     total cpu time spent up to now is       32.2 secs

     total energy              =     -54.94430434 Ry
     estimated scf accuracy    <          8.3E-10 Ry

     iteration # 13     ecut=    85.00 Ry     beta= 0.50
     Davidson diagonalization with overlap
     ethr =  2.58E-12,  avg # of iterations =  4.0

     total cpu time spent up to now is       34.6 secs

     total energy              =     -54.94430434 Ry
     estimated scf accuracy    <          7.1E-11 Ry

     iteration # 14     ecut=    85.00 Ry     beta= 0.50
     Davidson diagonalization with overlap
     ethr =  2.23E-13,  avg # of iterations =  5.0

     total cpu time spent up to now is       37.1 secs

     total energy              =     -54.94430434 Ry
     estimated scf accuracy    <          2.0E-11 Ry

     iteration # 15     ecut=    85.00 Ry     beta= 0.50
     Davidson diagonalization with overlap
     ethr =  1.00E-13,  avg # of iterations =  2.0

     total cpu time spent up to now is       39.4 secs

     total energy              =     -54.94430434 Ry
     estimated scf accuracy    <          1.3E-12 Ry

     iteration # 16     ecut=    85.00 Ry     beta= 0.50
     Davidson diagonalization with overlap
     ethr =  1.00E-13,  avg # of iterations =  1.0

     total cpu time spent up to now is       41.2 secs

     End of self-consistent calculation

          k = 0.0000 0.0000 0.0000 ( 53024 PWs)   bands (ev):

   -19.7306 -12.9169 -12.3800 -11.3426 -10.5706 -10.3803  -8.3377  -7.5983
    -7.5953  -6.9343  -6.7993  -6.6979  -6.2333  -6.0418  -5.7388  -2.2439

     highest occupied level (ev):    -2.2439

!    total energy              =     -54.94430434 Ry
     estimated scf accuracy    <          2.2E-13 Ry

     The total energy is the sum of the following terms:
     one-electron contribution =    -136.79787014 Ry
     hartree contribution      =      71.59429687 Ry
     xc contribution           =     -24.06603586 Ry
     ewald contribution        =      34.32530478 Ry

     convergence has been achieved in  16 iterations

     Forces acting on atoms (cartesian axes, Ry/au):

     atom    1 type  1   force =     0.00170399    0.27308300   -0.03508910
     atom    2 type  2   force =     0.00113403   -0.01275209    0.00421139
     atom    3 type  2   force =     0.45911059    3.61647433    0.03863896
     atom    4 type  2   force =    -0.00091898   -0.01443507    0.00571362
     atom    5 type  1   force =    -0.00064383    0.01924248   -0.02540563
     atom    6 type  1   force =     0.00022368   -0.00000031    0.02370556
     atom    7 type  2   force =    -0.00004179   -0.00329357   -0.00017553
     atom    8 type  2   force =     0.00003345   -0.00313073   -0.00025313
     atom    9 type  1   force =     0.00051175   -0.01922613   -0.02540950
     atom   10 type  2   force =     0.00005182   -0.00015641   -0.00029524
     atom   11 type  2   force =     0.00000347    0.00014592   -0.00045264
     atom   12 type  1   force =    -0.00208557   -0.27307986   -0.03505259
     atom   13 type  2   force =    -0.45893302   -3.61649945    0.04035271
     atom   14 type  2   force =     0.00095605    0.01439856    0.00569387
     atom   15 type  2   force =    -0.00109624    0.01280316    0.00424543
     atom   16 type  2   force =     0.00003341    0.00306795   -0.00018395
     atom   17 type  2   force =    -0.00004282    0.00335819   -0.00024426

     Total force =     5.170839     Total SCF correction =     0.000000

     Writing output data file ./Pentasilane.save/

     init_run     :      2.03s CPU      2.12s WALL (       1 calls)
     electrons    :     38.42s CPU     39.04s WALL (       1 calls)
     forces       :      1.42s CPU      1.46s WALL (       1 calls)

     Called by init_run:
     wfcinit      :      1.07s CPU      1.09s WALL (       1 calls)
     potinit      :      0.58s CPU      0.62s WALL (       1 calls)
     hinit0       :      0.22s CPU      0.23s WALL (       1 calls)

     Called by electrons:
     c_bands      :     26.01s CPU     26.17s WALL (      16 calls)
     sum_band     :      4.28s CPU      4.30s WALL (      16 calls)
     v_of_rho     :      6.50s CPU      6.93s WALL (      17 calls)
     mix_rho      :      1.85s CPU      1.87s WALL (      16 calls)

     Called by c_bands:
     init_us_2    :      0.54s CPU      0.57s WALL (      33 calls)
     regterg      :     24.90s CPU     25.05s WALL (      16 calls)

     Called by *egterg:
     rdiaghg      :      0.07s CPU      0.07s WALL (      74 calls)
     h_psi        :     21.98s CPU     22.12s WALL (      75 calls)
     g_psi        :      0.05s CPU      0.05s WALL (      58 calls)

     Called by h_psi:
     h_psi:calbec :      4.33s CPU      4.34s WALL (      75 calls)
     vloc_psi     :     13.96s CPU     14.07s WALL (      75 calls)
     add_vuspsi   :      3.60s CPU      3.61s WALL (      75 calls)

     General routines
     calbec       :      4.71s CPU      4.72s WALL (      79 calls)
     fft          :      4.45s CPU      4.55s WALL (     144 calls)
     ffts         :      0.48s CPU      0.48s WALL (      16 calls)
     fftw         :     13.18s CPU     13.27s WALL (     898 calls)

     Parallel routines

     PWSCF        :     42.00s CPU     42.77s WALL


   This run was terminated on:   2:37:17  24May2021            

=------------------------------------------------------------------------------=
   JOB DONE.
=------------------------------------------------------------------------------=
