
     Program PWSCF v.6.7GPU starts on 24May2021 at  2:34: 1 

     This program is part of the open-source Quantum ESPRESSO suite
     for quantum simulation of materials; please cite
         "P. Giannozzi et al., J. Phys.:Condens. Matter 21 395502 (2009);
         "P. Giannozzi et al., J. Phys.:Condens. Matter 29 465901 (2017);
         "P. Giannozzi et al., J. Chem. Phys. 152 154105 (2020);
          URL http://www.quantum-espresso.org", 
     in publications or presentations arising from this work. More details at
     http://www.quantum-espresso.org/quote

     Parallel version (MPI), running on     4 processors

     MPI processes distributed on     1 nodes
     R & G space division:  proc/nbgrp/npool/nimage =       4
     Waiting for input...
     Reading input from standard input
     Message from routine read_cards :
     DEPRECATED: no units specified in CELL_PARAMETERS card

     Current dimensions of program PWSCF are:
     Max number of different atomic species (ntypx) = 10
     Max number of k-points (npk) =  40000
     Max angular momentum in pseudopotentials (lmaxx) =  3

     gamma-point specific algorithms are used

     Subspace diagonalization in iterative solution of the eigenvalue problem:
     one sub-group per band group will be used
     scalapack distributed-memory algorithm (size of sub-group:  2*  2 procs)


     Parallelization info
     --------------------
     sticks:   dense  smooth     PW     G-vecs:    dense   smooth      PW
     Min        2069    2069    518               141623   141623   17686
     Max        2072    2072    520               141628   141628   17689
     Sum        8285    8285   2077               566507   566507   70751

     Using Slab Decomposition



     bravais-lattice index     =            0
     lattice parameter (alat)  =      20.0000  a.u.
     unit-cell volume          =    8000.0000 (a.u.)^3
     number of atoms/cell      =           17
     number of atomic types    =            2
     number of electrons       =        32.00
     number of Kohn-Sham states=           16
     kinetic-energy cutoff     =      65.0000  Ry
     charge density cutoff     =     260.0000  Ry
     scf convergence threshold =      1.0E-12
     mixing beta               =       0.5000
     number of iterations used =            8  plain     mixing
     Exchange-correlation= PBE
                           (   1   4   3   4   0   0   0)

     celldm(1)=  20.000000  celldm(2)=   0.000000  celldm(3)=   0.000000
     celldm(4)=   0.000000  celldm(5)=   0.000000  celldm(6)=   0.000000

     crystal axes: (cart. coord. in units of alat)
               a(1) = (   1.000000   0.000000   0.000000 )  
               a(2) = (   0.000000   1.000000   0.000000 )  
               a(3) = (   0.000000   0.000000   1.000000 )  

     reciprocal axes: (cart. coord. in units 2 pi/alat)
               b(1) = (  1.000000  0.000000  0.000000 )  
               b(2) = (  0.000000  1.000000  0.000000 )  
               b(3) = (  0.000000  0.000000  1.000000 )  


     PseudoPot. # 1 for Si read from file:
     /home/ciga/builds/pseudo_potentials/Si.upf
     MD5 check sum: d8e8ea3dd55db7858206a05f373c9c65
     Pseudo is Norm-conserving + core correction, Zval =  4.0
     Generated using ONCVPSP code by D. R. Hamann
     Using radial grid of 1528 points,  6 beta functions with: 
                l(1) =   0
                l(2) =   0
                l(3) =   1
                l(4) =   1
                l(5) =   2
                l(6) =   2

     PseudoPot. # 2 for H  read from file:
     /home/ciga/builds/pseudo_potentials/H.upf
     MD5 check sum: 418cee52d0c413ae40802e6cc37ab9e3
     Pseudo is Norm-conserving, Zval =  1.0
     Generated using ONCVPSP code by D. R. Hamann
     Using radial grid of 1166 points,  3 beta functions with: 
                l(1) =   0
                l(2) =   0
                l(3) =   1

     atomic species   valence    mass     pseudopotential
        Si             4.00    28.08550     Si( 1.00)
        H              1.00     1.00794     H ( 1.00)

     No symmetry found



   Cartesian axes

     site n.     atom                  positions (alat units)
         1           Si  tau(   1) = (  -0.0004567  -0.3682105  -0.0494961  )
         2           H   tau(   2) = (   0.1123231  -0.3697634  -0.1346666  )
         3           H   tau(   3) = (   0.0021164  -0.4846031   0.0307355  )
         4           H   tau(   4) = (  -0.1170251  -0.3711704  -0.1293415  )
         5           Si  tau(   5) = (   0.0009870  -0.1845978   0.0752964  )
         6           Si  tau(   6) = (  -0.0000383   0.0000012  -0.0481964  )
         7           H   tau(   7) = (  -0.1124773  -0.1838504   0.1600975  )
         8           H   tau(   8) = (   0.1161867  -0.1845228   0.1577288  )
         9           Si  tau(   9) = (  -0.0009920   0.1845953   0.0752987  )
        10           H   tau(  10) = (  -0.1142215  -0.0003236  -0.1320757  )
        11           H   tau(  11) = (   0.1142196   0.0003503  -0.1319474  )
        12           Si  tau(  12) = (   0.0004908   0.3682099  -0.0494965  )
        13           H   tau(  13) = (  -0.0018088   0.4846029   0.0307427  )
        14           H   tau(  14) = (   0.1169488   0.3709770  -0.1295157  )
        15           H   tau(  15) = (  -0.1124097   0.3699713  -0.1344976  )
        16           H   tau(  16) = (   0.1125350   0.1842188   0.1600196  )
        17           H   tau(  17) = (  -0.1161321   0.1841651   0.1578115  )

     number of k points=     1
                       cart. coord. in units 2pi/alat
        k(    1) = (   0.0000000   0.0000000   0.0000000), wk =   2.0000000

     Dense  grid:   283254 G-vectors     FFT dimensions: ( 108, 108, 108)

     Estimated max dynamical RAM per process >      86.90 MB

     Estimated total dynamical RAM >     347.59 MB

     Initial potential from superposition of free atoms

     starting charge   31.99682, renormalised to   32.00000

     negative rho (up, down):  6.748E-05 0.000E+00
     Starting wfcs are   32 randomized atomic wfcs

     total cpu time spent up to now is        1.7 secs

     Self-consistent Calculation

     iteration #  1     ecut=    65.00 Ry     beta= 0.50
     Davidson diagonalization with overlap
     ethr =  1.00E-02,  avg # of iterations =  3.0

     negative rho (up, down):  1.881E-05 0.000E+00

     total cpu time spent up to now is        3.7 secs

     total energy              =     -54.95250736 Ry
     estimated scf accuracy    <       0.99955654 Ry

     iteration #  2     ecut=    65.00 Ry     beta= 0.50
     Davidson diagonalization with overlap
     ethr =  3.12E-03,  avg # of iterations =  2.0

     negative rho (up, down):  5.780E-07 0.000E+00

     total cpu time spent up to now is        5.2 secs

     total energy              =     -54.91382510 Ry
     estimated scf accuracy    <       0.17384298 Ry

     iteration #  3     ecut=    65.00 Ry     beta= 0.50
     Davidson diagonalization with overlap
     ethr =  5.43E-04,  avg # of iterations =  2.0

     negative rho (up, down):  3.894E-07 0.000E+00

     total cpu time spent up to now is        7.0 secs

     total energy              =     -54.94086363 Ry
     estimated scf accuracy    <       0.00594988 Ry

     iteration #  4     ecut=    65.00 Ry     beta= 0.50
     Davidson diagonalization with overlap
     ethr =  1.86E-05,  avg # of iterations =  5.0

     total cpu time spent up to now is        9.1 secs

     total energy              =     -54.94283003 Ry
     estimated scf accuracy    <       0.00108381 Ry

     iteration #  5     ecut=    65.00 Ry     beta= 0.50
     Davidson diagonalization with overlap
     ethr =  3.39E-06,  avg # of iterations =  2.0

     total cpu time spent up to now is       10.8 secs

     total energy              =     -54.94299685 Ry
     estimated scf accuracy    <       0.00006363 Ry

     iteration #  6     ecut=    65.00 Ry     beta= 0.50
     Davidson diagonalization with overlap
     ethr =  1.99E-07,  avg # of iterations =  5.0

     total cpu time spent up to now is       12.9 secs

     total energy              =     -54.94301710 Ry
     estimated scf accuracy    <       0.00001179 Ry

     iteration #  7     ecut=    65.00 Ry     beta= 0.50
     Davidson diagonalization with overlap
     ethr =  3.68E-08,  avg # of iterations =  3.0

     total cpu time spent up to now is       14.9 secs

     total energy              =     -54.94301919 Ry
     estimated scf accuracy    <       0.00000683 Ry

     iteration #  8     ecut=    65.00 Ry     beta= 0.50
     Davidson diagonalization with overlap
     ethr =  2.13E-08,  avg # of iterations =  3.0

     total cpu time spent up to now is       16.7 secs

     total energy              =     -54.94302002 Ry
     estimated scf accuracy    <       0.00000049 Ry

     iteration #  9     ecut=    65.00 Ry     beta= 0.50
     Davidson diagonalization with overlap
     ethr =  1.54E-09,  avg # of iterations =  3.0

     total cpu time spent up to now is       18.7 secs

     total energy              =     -54.94302019 Ry
     estimated scf accuracy    <       0.00000005 Ry

     iteration # 10     ecut=    65.00 Ry     beta= 0.50
     Davidson diagonalization with overlap
     ethr =  1.67E-10,  avg # of iterations =  5.0

     total cpu time spent up to now is       20.7 secs

     total energy              =     -54.94302021 Ry
     estimated scf accuracy    <       0.00000002 Ry

     iteration # 11     ecut=    65.00 Ry     beta= 0.50
     Davidson diagonalization with overlap
     ethr =  5.13E-11,  avg # of iterations =  4.0

     total cpu time spent up to now is       22.7 secs

     total energy              =     -54.94302021 Ry
     estimated scf accuracy    <          1.2E-09 Ry

     iteration # 12     ecut=    65.00 Ry     beta= 0.50
     Davidson diagonalization with overlap
     ethr =  3.73E-12,  avg # of iterations =  6.0

     total cpu time spent up to now is       24.8 secs

     total energy              =     -54.94302021 Ry
     estimated scf accuracy    <          3.2E-10 Ry

     iteration # 13     ecut=    65.00 Ry     beta= 0.50
     Davidson diagonalization with overlap
     ethr =  9.96E-13,  avg # of iterations =  4.0

     total cpu time spent up to now is       26.4 secs

     total energy              =     -54.94302021 Ry
     estimated scf accuracy    <          4.8E-11 Ry

     iteration # 14     ecut=    65.00 Ry     beta= 0.50
     Davidson diagonalization with overlap
     ethr =  1.50E-13,  avg # of iterations =  9.0

     total cpu time spent up to now is       28.7 secs

     total energy              =     -54.94302021 Ry
     estimated scf accuracy    <          5.8E-11 Ry

     iteration # 15     ecut=    65.00 Ry     beta= 0.50
     Davidson diagonalization with overlap
     ethr =  1.50E-13,  avg # of iterations =  8.0

     total cpu time spent up to now is       30.6 secs

     total energy              =     -54.94302022 Ry
     estimated scf accuracy    <          3.1E-11 Ry

     iteration # 16     ecut=    65.00 Ry     beta= 0.50
     Davidson diagonalization with overlap
     ethr =  1.00E-13,  avg # of iterations =  2.0

     total cpu time spent up to now is       32.2 secs

     total energy              =     -54.94302022 Ry
     estimated scf accuracy    <          1.2E-11 Ry

     iteration # 17     ecut=    65.00 Ry     beta= 0.50
     Davidson diagonalization with overlap
     ethr =  1.00E-13,  avg # of iterations =  6.0

     total cpu time spent up to now is       33.8 secs

     End of self-consistent calculation

          k = 0.0000 0.0000 0.0000 ( 35376 PWs)   bands (ev):

   -19.7302 -12.9168 -12.3800 -11.3424 -10.5705 -10.3802  -8.3376  -7.5981
    -7.5951  -6.9341  -6.7992  -6.6978  -6.2331  -6.0416  -5.7386  -2.2439

     highest occupied level (ev):    -2.2439

!    total energy              =     -54.94302022 Ry
     estimated scf accuracy    <          4.4E-13 Ry

     The total energy is the sum of the following terms:
     one-electron contribution =    -136.79605949 Ry
     hartree contribution      =      71.59319394 Ry
     xc contribution           =     -24.06545944 Ry
     ewald contribution        =      34.32530478 Ry

     convergence has been achieved in  17 iterations

     Forces acting on atoms (cartesian axes, Ry/au):

     atom    1 type  1   force =     0.00170487    0.27310250   -0.03505938
     atom    2 type  2   force =     0.00117333   -0.01274887    0.00418396
     atom    3 type  2   force =     0.45932780    3.61816501    0.03865784
     atom    4 type  2   force =    -0.00095967   -0.01443238    0.00568887
     atom    5 type  1   force =    -0.00064429    0.01924213   -0.02545101
     atom    6 type  1   force =     0.00022363   -0.00000035    0.02375134
     atom    7 type  2   force =    -0.00008081   -0.00329296   -0.00014878
     atom    8 type  2   force =     0.00007253   -0.00313052   -0.00022759
     atom    9 type  1   force =     0.00051219   -0.01922572   -0.02545508
     atom   10 type  2   force =     0.00001283   -0.00015660   -0.00032141
     atom   11 type  2   force =     0.00004255    0.00014614   -0.00047878
     atom   12 type  1   force =    -0.00208645   -0.27309958   -0.03502318
     atom   13 type  2   force =    -0.45915015   -3.61818979    0.04037219
     atom   14 type  2   force =     0.00099674    0.01439567    0.00566903
     atom   15 type  2   force =    -0.00113563    0.01279997    0.00421797
     atom   16 type  2   force =     0.00007242    0.00306754   -0.00015728
     atom   17 type  2   force =    -0.00008187    0.00335783   -0.00021871

     Total force =     5.173245     Total SCF correction =     0.000001

     Writing output data file ./Pentasilane.save/

     init_run     :      1.53s CPU      1.59s WALL (       1 calls)
     electrons    :     31.61s CPU     32.14s WALL (       1 calls)
     forces       :      1.01s CPU      1.05s WALL (       1 calls)

     Called by init_run:
     wfcinit      :      0.80s CPU      0.83s WALL (       1 calls)
     potinit      :      0.45s CPU      0.47s WALL (       1 calls)
     hinit0       :      0.17s CPU      0.18s WALL (       1 calls)

     Called by electrons:
     c_bands      :     21.62s CPU     21.74s WALL (      17 calls)
     sum_band     :      3.57s CPU      3.59s WALL (      17 calls)
     v_of_rho     :      5.15s CPU      5.53s WALL (      18 calls)
     mix_rho      :      1.39s CPU      1.41s WALL (      17 calls)

     Called by c_bands:
     init_us_2    :      0.39s CPU      0.40s WALL (      35 calls)
     regterg      :     20.82s CPU     20.93s WALL (      17 calls)

     Called by *egterg:
     rdiaghg      :      0.07s CPU      0.08s WALL (      89 calls)
     h_psi        :     18.84s CPU     18.95s WALL (      90 calls)
     g_psi        :      0.03s CPU      0.03s WALL (      72 calls)

     Called by h_psi:
     h_psi:calbec :      3.23s CPU      3.24s WALL (      90 calls)
     vloc_psi     :     13.04s CPU     13.12s WALL (      90 calls)
     add_vuspsi   :      2.50s CPU      2.51s WALL (      90 calls)

     General routines
     calbec       :      3.49s CPU      3.50s WALL (      94 calls)
     fft          :      3.61s CPU      3.68s WALL (     152 calls)
     ffts         :      0.42s CPU      0.42s WALL (      17 calls)
     fftw         :     12.72s CPU     12.80s WALL (     974 calls)

     Parallel routines

     PWSCF        :     34.27s CPU     34.92s WALL


   This run was terminated on:   2:34:36  24May2021            

=------------------------------------------------------------------------------=
   JOB DONE.
=------------------------------------------------------------------------------=
