
     Program PWSCF v.6.7GPU starts on 24May2021 at  2:32:18 

     This program is part of the open-source Quantum ESPRESSO suite
     for quantum simulation of materials; please cite
         "P. Giannozzi et al., J. Phys.:Condens. Matter 21 395502 (2009);
         "P. Giannozzi et al., J. Phys.:Condens. Matter 29 465901 (2017);
         "P. Giannozzi et al., J. Chem. Phys. 152 154105 (2020);
          URL http://www.quantum-espresso.org", 
     in publications or presentations arising from this work. More details at
     http://www.quantum-espresso.org/quote

     Parallel version (MPI), running on     4 processors

     MPI processes distributed on     1 nodes
     R & G space division:  proc/nbgrp/npool/nimage =       4
     Waiting for input...
     Reading input from standard input
     Message from routine read_cards :
     DEPRECATED: no units specified in CELL_PARAMETERS card

     Current dimensions of program PWSCF are:
     Max number of different atomic species (ntypx) = 10
     Max number of k-points (npk) =  40000
     Max angular momentum in pseudopotentials (lmaxx) =  3

     gamma-point specific algorithms are used

     Subspace diagonalization in iterative solution of the eigenvalue problem:
     one sub-group per band group will be used
     scalapack distributed-memory algorithm (size of sub-group:  2*  2 procs)


     Parallelization info
     --------------------
     sticks:   dense  smooth     PW     G-vecs:    dense   smooth      PW
     Min        1271    1271    317                68355    68355    8565
     Max        1276    1276    322                68358    68358    8568
     Sum        5097    5097   1281               273425   273425   34265

     Using Slab Decomposition



     bravais-lattice index     =            0
     lattice parameter (alat)  =      20.0000  a.u.
     unit-cell volume          =    8000.0000 (a.u.)^3
     number of atoms/cell      =           17
     number of atomic types    =            2
     number of electrons       =        32.00
     number of Kohn-Sham states=           16
     kinetic-energy cutoff     =      40.0000  Ry
     charge density cutoff     =     160.0000  Ry
     scf convergence threshold =      1.0E-12
     mixing beta               =       0.5000
     number of iterations used =            8  plain     mixing
     Exchange-correlation= PBE
                           (   1   4   3   4   0   0   0)

     celldm(1)=  20.000000  celldm(2)=   0.000000  celldm(3)=   0.000000
     celldm(4)=   0.000000  celldm(5)=   0.000000  celldm(6)=   0.000000

     crystal axes: (cart. coord. in units of alat)
               a(1) = (   1.000000   0.000000   0.000000 )  
               a(2) = (   0.000000   1.000000   0.000000 )  
               a(3) = (   0.000000   0.000000   1.000000 )  

     reciprocal axes: (cart. coord. in units 2 pi/alat)
               b(1) = (  1.000000  0.000000  0.000000 )  
               b(2) = (  0.000000  1.000000  0.000000 )  
               b(3) = (  0.000000  0.000000  1.000000 )  


     PseudoPot. # 1 for Si read from file:
     /home/ciga/builds/pseudo_potentials/Si.upf
     MD5 check sum: d8e8ea3dd55db7858206a05f373c9c65
     Pseudo is Norm-conserving + core correction, Zval =  4.0
     Generated using ONCVPSP code by D. R. Hamann
     Using radial grid of 1528 points,  6 beta functions with: 
                l(1) =   0
                l(2) =   0
                l(3) =   1
                l(4) =   1
                l(5) =   2
                l(6) =   2

     PseudoPot. # 2 for H  read from file:
     /home/ciga/builds/pseudo_potentials/H.upf
     MD5 check sum: 418cee52d0c413ae40802e6cc37ab9e3
     Pseudo is Norm-conserving, Zval =  1.0
     Generated using ONCVPSP code by D. R. Hamann
     Using radial grid of 1166 points,  3 beta functions with: 
                l(1) =   0
                l(2) =   0
                l(3) =   1

     atomic species   valence    mass     pseudopotential
        Si             4.00    28.08550     Si( 1.00)
        H              1.00     1.00794     H ( 1.00)

     No symmetry found



   Cartesian axes

     site n.     atom                  positions (alat units)
         1           Si  tau(   1) = (  -0.0004567  -0.3682105  -0.0494961  )
         2           H   tau(   2) = (   0.1123231  -0.3697634  -0.1346666  )
         3           H   tau(   3) = (   0.0021164  -0.4846031   0.0307355  )
         4           H   tau(   4) = (  -0.1170251  -0.3711704  -0.1293415  )
         5           Si  tau(   5) = (   0.0009870  -0.1845978   0.0752964  )
         6           Si  tau(   6) = (  -0.0000383   0.0000012  -0.0481964  )
         7           H   tau(   7) = (  -0.1124773  -0.1838504   0.1600975  )
         8           H   tau(   8) = (   0.1161867  -0.1845228   0.1577288  )
         9           Si  tau(   9) = (  -0.0009920   0.1845953   0.0752987  )
        10           H   tau(  10) = (  -0.1142215  -0.0003236  -0.1320757  )
        11           H   tau(  11) = (   0.1142196   0.0003503  -0.1319474  )
        12           Si  tau(  12) = (   0.0004908   0.3682099  -0.0494965  )
        13           H   tau(  13) = (  -0.0018088   0.4846029   0.0307427  )
        14           H   tau(  14) = (   0.1169488   0.3709770  -0.1295157  )
        15           H   tau(  15) = (  -0.1124097   0.3699713  -0.1344976  )
        16           H   tau(  16) = (   0.1125350   0.1842188   0.1600196  )
        17           H   tau(  17) = (  -0.1161321   0.1841651   0.1578115  )

     number of k points=     1
                       cart. coord. in units 2pi/alat
        k(    1) = (   0.0000000   0.0000000   0.0000000), wk =   2.0000000

     Dense  grid:   136713 G-vectors     FFT dimensions: (  81,  81,  81)

     Estimated max dynamical RAM per process >      41.76 MB

     Estimated total dynamical RAM >     167.05 MB

     Initial potential from superposition of free atoms

     starting charge   31.99682, renormalised to   32.00000

     negative rho (up, down):  1.107E-04 0.000E+00
     Starting wfcs are   32 randomized atomic wfcs

     total cpu time spent up to now is        0.8 secs

     Self-consistent Calculation

     iteration #  1     ecut=    40.00 Ry     beta= 0.50
     Davidson diagonalization with overlap
     ethr =  1.00E-02,  avg # of iterations =  3.0

     negative rho (up, down):  3.477E-05 0.000E+00

     total cpu time spent up to now is        1.5 secs

     total energy              =     -54.91846415 Ry
     estimated scf accuracy    <       0.98680202 Ry

     iteration #  2     ecut=    40.00 Ry     beta= 0.50
     Davidson diagonalization with overlap
     ethr =  3.08E-03,  avg # of iterations =  2.0

     negative rho (up, down):  1.061E-06 0.000E+00

     total cpu time spent up to now is        2.1 secs

     total energy              =     -54.88143238 Ry
     estimated scf accuracy    <       0.17094669 Ry

     iteration #  3     ecut=    40.00 Ry     beta= 0.50
     Davidson diagonalization with overlap
     ethr =  5.34E-04,  avg # of iterations =  2.0

     negative rho (up, down):  5.404E-07 0.000E+00

     total cpu time spent up to now is        2.8 secs

     total energy              =     -54.90760924 Ry
     estimated scf accuracy    <       0.00568253 Ry

     iteration #  4     ecut=    40.00 Ry     beta= 0.50
     Davidson diagonalization with overlap
     ethr =  1.78E-05,  avg # of iterations =  5.0

     total cpu time spent up to now is        3.7 secs

     total energy              =     -54.90949643 Ry
     estimated scf accuracy    <       0.00090248 Ry

     iteration #  5     ecut=    40.00 Ry     beta= 0.50
     Davidson diagonalization with overlap
     ethr =  2.82E-06,  avg # of iterations =  2.0

     total cpu time spent up to now is        4.3 secs

     total energy              =     -54.90963326 Ry
     estimated scf accuracy    <       0.00005837 Ry

     iteration #  6     ecut=    40.00 Ry     beta= 0.50
     Davidson diagonalization with overlap
     ethr =  1.82E-07,  avg # of iterations =  5.0

     total cpu time spent up to now is        5.2 secs

     total energy              =     -54.90965162 Ry
     estimated scf accuracy    <       0.00001392 Ry

     iteration #  7     ecut=    40.00 Ry     beta= 0.50
     Davidson diagonalization with overlap
     ethr =  4.35E-08,  avg # of iterations =  3.0

     total cpu time spent up to now is        6.0 secs

     total energy              =     -54.90965422 Ry
     estimated scf accuracy    <       0.00000593 Ry

     iteration #  8     ecut=    40.00 Ry     beta= 0.50
     Davidson diagonalization with overlap
     ethr =  1.85E-08,  avg # of iterations =  2.0

     total cpu time spent up to now is        6.6 secs

     total energy              =     -54.90965492 Ry
     estimated scf accuracy    <       0.00000034 Ry

     iteration #  9     ecut=    40.00 Ry     beta= 0.50
     Davidson diagonalization with overlap
     ethr =  1.05E-09,  avg # of iterations =  5.0

     total cpu time spent up to now is        7.4 secs

     total energy              =     -54.90965508 Ry
     estimated scf accuracy    <       0.00000010 Ry

     iteration # 10     ecut=    40.00 Ry     beta= 0.50
     Davidson diagonalization with overlap
     ethr =  3.04E-10,  avg # of iterations =  3.0

     total cpu time spent up to now is        8.2 secs

     total energy              =     -54.90965511 Ry
     estimated scf accuracy    <          9.7E-09 Ry

     iteration # 11     ecut=    40.00 Ry     beta= 0.50
     Davidson diagonalization with overlap
     ethr =  3.02E-11,  avg # of iterations =  4.0

     total cpu time spent up to now is        8.9 secs

     total energy              =     -54.90965511 Ry
     estimated scf accuracy    <          3.0E-10 Ry

     iteration # 12     ecut=    40.00 Ry     beta= 0.50
     Davidson diagonalization with overlap
     ethr =  9.31E-13,  avg # of iterations =  5.0

     total cpu time spent up to now is        9.8 secs

     total energy              =     -54.90965512 Ry
     estimated scf accuracy    <          6.6E-11 Ry

     iteration # 13     ecut=    40.00 Ry     beta= 0.50
     Davidson diagonalization with overlap
     ethr =  2.05E-13,  avg # of iterations =  5.0

     total cpu time spent up to now is       10.6 secs

     total energy              =     -54.90965512 Ry
     estimated scf accuracy    <          7.8E-12 Ry

     iteration # 14     ecut=    40.00 Ry     beta= 0.50
     Davidson diagonalization with overlap
     ethr =  1.00E-13,  avg # of iterations =  2.0

     total cpu time spent up to now is       11.2 secs

     total energy              =     -54.90965512 Ry
     estimated scf accuracy    <          1.6E-12 Ry

     iteration # 15     ecut=    40.00 Ry     beta= 0.50
     Davidson diagonalization with overlap
     ethr =  1.00E-13,  avg # of iterations =  1.0

     total cpu time spent up to now is       11.7 secs

     End of self-consistent calculation

          k = 0.0000 0.0000 0.0000 ( 17133 PWs)   bands (ev):

   -19.7100 -12.9131 -12.3766 -11.3352 -10.5662 -10.3763  -8.3309  -7.5904
    -7.5884  -6.9253  -6.7911  -6.6940  -6.2276  -6.0358  -5.7347  -2.2426

     highest occupied level (ev):    -2.2426

!    total energy              =     -54.90965512 Ry
     estimated scf accuracy    <          1.7E-13 Ry

     The total energy is the sum of the following terms:
     one-electron contribution =    -136.75538161 Ry
     hartree contribution      =      71.57090915 Ry
     xc contribution           =     -24.05048744 Ry
     ewald contribution        =      34.32530478 Ry

     convergence has been achieved in  15 iterations

     Forces acting on atoms (cartesian axes, Ry/au):

     atom    1 type  1   force =     0.00170711    0.27331791   -0.03436918
     atom    2 type  2   force =     0.00198115   -0.01270651    0.00359125
     atom    3 type  2   force =     0.46376361    3.65208528    0.03906141
     atom    4 type  2   force =    -0.00179667   -0.01438444    0.00511687
     atom    5 type  1   force =    -0.00065296    0.01922712   -0.02643679
     atom    6 type  1   force =     0.00022267   -0.00000051    0.02474731
     atom    7 type  2   force =    -0.00085584   -0.00327656    0.00041095
     atom    8 type  2   force =     0.00085768   -0.00311906    0.00031802
     atom    9 type  1   force =     0.00052038   -0.01921085   -0.02644079
     atom   10 type  2   force =    -0.00076623   -0.00015995   -0.00087638
     atom   11 type  2   force =     0.00082271    0.00014967   -0.00103315
     atom   12 type  1   force =    -0.00208832   -0.27331506   -0.03433302
     atom   13 type  2   force =    -0.46358480   -3.65211004    0.04079217
     atom   14 type  2   force =     0.00183276    0.01434645    0.00509587
     atom   15 type  2   force =    -0.00194446    0.01275899    0.00362607
     atom   16 type  2   force =     0.00084783    0.00305400    0.00040202
     atom   17 type  2   force =    -0.00086661    0.00334357    0.00032735

     Total force =     5.221514     Total SCF correction =     0.000000

     Writing output data file ./Pentasilane.save/

     init_run     :      0.64s CPU      0.66s WALL (       1 calls)
     electrons    :     10.77s CPU     10.99s WALL (       1 calls)
     forces       :      0.48s CPU      0.49s WALL (       1 calls)

     Called by init_run:
     wfcinit      :      0.32s CPU      0.32s WALL (       1 calls)
     potinit      :      0.20s CPU      0.21s WALL (       1 calls)
     hinit0       :      0.08s CPU      0.09s WALL (       1 calls)

     Called by electrons:
     c_bands      :      7.26s CPU      7.32s WALL (      15 calls)
     sum_band     :      1.19s CPU      1.20s WALL (      15 calls)
     v_of_rho     :      1.94s CPU      2.09s WALL (      16 calls)
     mix_rho      :      0.43s CPU      0.44s WALL (      15 calls)

     Called by c_bands:
     init_us_2    :      0.16s CPU      0.17s WALL (      31 calls)
     regterg      :      6.92s CPU      6.98s WALL (      15 calls)

     Called by *egterg:
     rdiaghg      :      0.05s CPU      0.05s WALL (      64 calls)
     h_psi        :      6.22s CPU      6.26s WALL (      65 calls)
     g_psi        :      0.01s CPU      0.01s WALL (      49 calls)

     Called by h_psi:
     h_psi:calbec :      1.37s CPU      1.37s WALL (      65 calls)
     vloc_psi     :      3.80s CPU      3.84s WALL (      65 calls)
     add_vuspsi   :      1.03s CPU      1.03s WALL (      65 calls)

     General routines
     calbec       :      1.48s CPU      1.49s WALL (      69 calls)
     fft          :      1.28s CPU      1.31s WALL (     136 calls)
     ffts         :      0.14s CPU      0.14s WALL (      15 calls)
     fftw         :      3.58s CPU      3.62s WALL (     846 calls)

     Parallel routines

     PWSCF        :     11.99s CPU     12.26s WALL


   This run was terminated on:   2:32:30  24May2021            

=------------------------------------------------------------------------------=
   JOB DONE.
=------------------------------------------------------------------------------=
