
     Program PWSCF v.6.7GPU starts on 24May2021 at  2:32:54 

     This program is part of the open-source Quantum ESPRESSO suite
     for quantum simulation of materials; please cite
         "P. Giannozzi et al., J. Phys.:Condens. Matter 21 395502 (2009);
         "P. Giannozzi et al., J. Phys.:Condens. Matter 29 465901 (2017);
         "P. Giannozzi et al., J. Chem. Phys. 152 154105 (2020);
          URL http://www.quantum-espresso.org", 
     in publications or presentations arising from this work. More details at
     http://www.quantum-espresso.org/quote

     Parallel version (MPI), running on     4 processors

     MPI processes distributed on     1 nodes
     R & G space division:  proc/nbgrp/npool/nimage =       4
     Waiting for input...
     Reading input from standard input
     Message from routine read_cards :
     DEPRECATED: no units specified in CELL_PARAMETERS card

     Current dimensions of program PWSCF are:
     Max number of different atomic species (ntypx) = 10
     Max number of k-points (npk) =  40000
     Max angular momentum in pseudopotentials (lmaxx) =  3

     gamma-point specific algorithms are used

     Subspace diagonalization in iterative solution of the eigenvalue problem:
     one sub-group per band group will be used
     scalapack distributed-memory algorithm (size of sub-group:  2*  2 procs)


     Parallelization info
     --------------------
     sticks:   dense  smooth     PW     G-vecs:    dense   smooth      PW
     Min        1591    1591    398                95580    95580   11954
     Max        1594    1594    400                95582    95582   11960
     Sum        6369    6369   1597               382323   382323   47833

     Using Slab Decomposition



     bravais-lattice index     =            0
     lattice parameter (alat)  =      20.0000  a.u.
     unit-cell volume          =    8000.0000 (a.u.)^3
     number of atoms/cell      =           17
     number of atomic types    =            2
     number of electrons       =        32.00
     number of Kohn-Sham states=           16
     kinetic-energy cutoff     =      50.0000  Ry
     charge density cutoff     =     200.0000  Ry
     scf convergence threshold =      1.0E-12
     mixing beta               =       0.5000
     number of iterations used =            8  plain     mixing
     Exchange-correlation= PBE
                           (   1   4   3   4   0   0   0)

     celldm(1)=  20.000000  celldm(2)=   0.000000  celldm(3)=   0.000000
     celldm(4)=   0.000000  celldm(5)=   0.000000  celldm(6)=   0.000000

     crystal axes: (cart. coord. in units of alat)
               a(1) = (   1.000000   0.000000   0.000000 )  
               a(2) = (   0.000000   1.000000   0.000000 )  
               a(3) = (   0.000000   0.000000   1.000000 )  

     reciprocal axes: (cart. coord. in units 2 pi/alat)
               b(1) = (  1.000000  0.000000  0.000000 )  
               b(2) = (  0.000000  1.000000  0.000000 )  
               b(3) = (  0.000000  0.000000  1.000000 )  


     PseudoPot. # 1 for Si read from file:
     /home/ciga/builds/pseudo_potentials/Si.upf
     MD5 check sum: d8e8ea3dd55db7858206a05f373c9c65
     Pseudo is Norm-conserving + core correction, Zval =  4.0
     Generated using ONCVPSP code by D. R. Hamann
     Using radial grid of 1528 points,  6 beta functions with: 
                l(1) =   0
                l(2) =   0
                l(3) =   1
                l(4) =   1
                l(5) =   2
                l(6) =   2

     PseudoPot. # 2 for H  read from file:
     /home/ciga/builds/pseudo_potentials/H.upf
     MD5 check sum: 418cee52d0c413ae40802e6cc37ab9e3
     Pseudo is Norm-conserving, Zval =  1.0
     Generated using ONCVPSP code by D. R. Hamann
     Using radial grid of 1166 points,  3 beta functions with: 
                l(1) =   0
                l(2) =   0
                l(3) =   1

     atomic species   valence    mass     pseudopotential
        Si             4.00    28.08550     Si( 1.00)
        H              1.00     1.00794     H ( 1.00)

     No symmetry found



   Cartesian axes

     site n.     atom                  positions (alat units)
         1           Si  tau(   1) = (  -0.0004567  -0.3682105  -0.0494961  )
         2           H   tau(   2) = (   0.1123231  -0.3697634  -0.1346666  )
         3           H   tau(   3) = (   0.0021164  -0.4846031   0.0307355  )
         4           H   tau(   4) = (  -0.1170251  -0.3711704  -0.1293415  )
         5           Si  tau(   5) = (   0.0009870  -0.1845978   0.0752964  )
         6           Si  tau(   6) = (  -0.0000383   0.0000012  -0.0481964  )
         7           H   tau(   7) = (  -0.1124773  -0.1838504   0.1600975  )
         8           H   tau(   8) = (   0.1161867  -0.1845228   0.1577288  )
         9           Si  tau(   9) = (  -0.0009920   0.1845953   0.0752987  )
        10           H   tau(  10) = (  -0.1142215  -0.0003236  -0.1320757  )
        11           H   tau(  11) = (   0.1142196   0.0003503  -0.1319474  )
        12           Si  tau(  12) = (   0.0004908   0.3682099  -0.0494965  )
        13           H   tau(  13) = (  -0.0018088   0.4846029   0.0307427  )
        14           H   tau(  14) = (   0.1169488   0.3709770  -0.1295157  )
        15           H   tau(  15) = (  -0.1124097   0.3699713  -0.1344976  )
        16           H   tau(  16) = (   0.1125350   0.1842188   0.1600196  )
        17           H   tau(  17) = (  -0.1161321   0.1841651   0.1578115  )

     number of k points=     1
                       cart. coord. in units 2pi/alat
        k(    1) = (   0.0000000   0.0000000   0.0000000), wk =   2.0000000

     Dense  grid:   191162 G-vectors     FFT dimensions: (  96,  96,  96)

     Estimated max dynamical RAM per process >      59.77 MB

     Estimated total dynamical RAM >     239.06 MB

     Initial potential from superposition of free atoms

     starting charge   31.99682, renormalised to   32.00000

     negative rho (up, down):  1.985E-04 0.000E+00
     Starting wfcs are   32 randomized atomic wfcs

     total cpu time spent up to now is        1.1 secs

     Self-consistent Calculation

     iteration #  1     ecut=    50.00 Ry     beta= 0.50
     Davidson diagonalization with overlap
     ethr =  1.00E-02,  avg # of iterations =  3.0

     negative rho (up, down):  7.453E-05 0.000E+00

     total cpu time spent up to now is        2.3 secs

     total energy              =     -54.94276927 Ry
     estimated scf accuracy    <       0.99685076 Ry

     iteration #  2     ecut=    50.00 Ry     beta= 0.50
     Davidson diagonalization with overlap
     ethr =  3.12E-03,  avg # of iterations =  2.0

     negative rho (up, down):  4.326E-06 0.000E+00

     total cpu time spent up to now is        3.1 secs

     total energy              =     -54.90494231 Ry
     estimated scf accuracy    <       0.17269963 Ry

     iteration #  3     ecut=    50.00 Ry     beta= 0.50
     Davidson diagonalization with overlap
     ethr =  5.40E-04,  avg # of iterations =  2.0

     negative rho (up, down):  2.251E-06 0.000E+00

     total cpu time spent up to now is        4.2 secs

     total energy              =     -54.93159747 Ry
     estimated scf accuracy    <       0.00576938 Ry

     iteration #  4     ecut=    50.00 Ry     beta= 0.50
     Davidson diagonalization with overlap
     ethr =  1.80E-05,  avg # of iterations =  5.0

     negative rho (up, down):  4.677E-08 0.000E+00

     total cpu time spent up to now is        5.4 secs

     total energy              =     -54.93352382 Ry
     estimated scf accuracy    <       0.00094098 Ry

     iteration #  5     ecut=    50.00 Ry     beta= 0.50
     Davidson diagonalization with overlap
     ethr =  2.94E-06,  avg # of iterations =  2.0

     total cpu time spent up to now is        6.4 secs

     total energy              =     -54.93366796 Ry
     estimated scf accuracy    <       0.00006008 Ry

     iteration #  6     ecut=    50.00 Ry     beta= 0.50
     Davidson diagonalization with overlap
     ethr =  1.88E-07,  avg # of iterations =  5.0

     total cpu time spent up to now is        7.7 secs

     total energy              =     -54.93368709 Ry
     estimated scf accuracy    <       0.00001440 Ry

     iteration #  7     ecut=    50.00 Ry     beta= 0.50
     Davidson diagonalization with overlap
     ethr =  4.50E-08,  avg # of iterations =  3.0

     total cpu time spent up to now is        8.8 secs

     total energy              =     -54.93368969 Ry
     estimated scf accuracy    <       0.00000676 Ry

     iteration #  8     ecut=    50.00 Ry     beta= 0.50
     Davidson diagonalization with overlap
     ethr =  2.11E-08,  avg # of iterations =  2.0

     total cpu time spent up to now is        9.7 secs

     total energy              =     -54.93369056 Ry
     estimated scf accuracy    <       0.00000032 Ry

     iteration #  9     ecut=    50.00 Ry     beta= 0.50
     Davidson diagonalization with overlap
     ethr =  9.93E-10,  avg # of iterations =  7.0

     total cpu time spent up to now is       11.0 secs

     total energy              =     -54.93369074 Ry
     estimated scf accuracy    <       0.00000013 Ry

     iteration # 10     ecut=    50.00 Ry     beta= 0.50
     Davidson diagonalization with overlap
     ethr =  4.18E-10,  avg # of iterations =  3.0

     total cpu time spent up to now is       11.9 secs

     total energy              =     -54.93369073 Ry
     estimated scf accuracy    <       0.00000004 Ry

     iteration # 11     ecut=    50.00 Ry     beta= 0.50
     Davidson diagonalization with overlap
     ethr =  1.12E-10,  avg # of iterations =  7.0

     total cpu time spent up to now is       13.1 secs

     total energy              =     -54.93369074 Ry
     estimated scf accuracy    <       0.00000002 Ry

     iteration # 12     ecut=    50.00 Ry     beta= 0.50
     Davidson diagonalization with overlap
     ethr =  4.74E-11,  avg # of iterations =  8.0

     total cpu time spent up to now is       14.3 secs

     total energy              =     -54.93369075 Ry
     estimated scf accuracy    <          7.5E-09 Ry

     iteration # 13     ecut=    50.00 Ry     beta= 0.50
     Davidson diagonalization with overlap
     ethr =  2.36E-11,  avg # of iterations =  6.0

     total cpu time spent up to now is       15.3 secs

     total energy              =     -54.93369075 Ry
     estimated scf accuracy    <          2.6E-10 Ry

     iteration # 14     ecut=    50.00 Ry     beta= 0.50
     Davidson diagonalization with overlap
     ethr =  8.13E-13,  avg # of iterations =  8.0

     total cpu time spent up to now is       16.5 secs

     total energy              =     -54.93369075 Ry
     estimated scf accuracy    <          7.5E-11 Ry

     iteration # 15     ecut=    50.00 Ry     beta= 0.50
     Davidson diagonalization with overlap
     ethr =  2.34E-13,  avg # of iterations =  8.0

     total cpu time spent up to now is       17.7 secs

     total energy              =     -54.93369075 Ry
     estimated scf accuracy    <          4.6E-11 Ry

     iteration # 16     ecut=    50.00 Ry     beta= 0.50
     Davidson diagonalization with overlap
     ethr =  1.44E-13,  avg # of iterations =  8.0

     total cpu time spent up to now is       18.9 secs

     total energy              =     -54.93369075 Ry
     estimated scf accuracy    <          3.9E-11 Ry

     iteration # 17     ecut=    50.00 Ry     beta= 0.50
     Davidson diagonalization with overlap
     ethr =  1.22E-13,  avg # of iterations =  8.0

     total cpu time spent up to now is       20.0 secs

     total energy              =     -54.93369075 Ry
     estimated scf accuracy    <          4.7E-12 Ry

     iteration # 18     ecut=    50.00 Ry     beta= 0.50
     Davidson diagonalization with overlap
     ethr =  1.00E-13,  avg # of iterations =  1.0

     total cpu time spent up to now is       20.8 secs

     total energy              =     -54.93369075 Ry
     estimated scf accuracy    <          1.2E-12 Ry

     iteration # 19     ecut=    50.00 Ry     beta= 0.50
     Davidson diagonalization with overlap
     ethr =  1.00E-13,  avg # of iterations =  2.0

     total cpu time spent up to now is       21.7 secs

     End of self-consistent calculation

          k = 0.0000 0.0000 0.0000 ( 23917 PWs)   bands (ev):

   -19.7251 -12.9158 -12.3791 -11.3404 -10.5692 -10.3791  -8.3359  -7.5962
    -7.5935  -6.9319  -6.7970  -6.6968  -6.2317  -6.0400  -5.7376  -2.2436

     highest occupied level (ev):    -2.2436

!    total energy              =     -54.93369075 Ry
     estimated scf accuracy    <          5.3E-14 Ry

     The total energy is the sum of the following terms:
     one-electron contribution =    -136.78445961 Ry
     hartree contribution      =      71.58664996 Ry
     xc contribution           =     -24.06118583 Ry
     ewald contribution        =      34.32530473 Ry

     convergence has been achieved in  19 iterations

     Forces acting on atoms (cartesian axes, Ry/au):

     atom    1 type  1   force =     0.00170528    0.27316151   -0.03485356
     atom    2 type  2   force =     0.00136285   -0.01273614    0.00403706
     atom    3 type  2   force =     0.46055087    3.62774840    0.03871494
     atom    4 type  2   force =    -0.00115490   -0.01442570    0.00555541
     atom    5 type  1   force =    -0.00064685    0.01923765   -0.02573734
     atom    6 type  1   force =     0.00022333   -0.00000046    0.02403992
     atom    7 type  2   force =    -0.00028461   -0.00328721    0.00001183
     atom    8 type  2   force =     0.00028072   -0.00312577   -0.00007184
     atom    9 type  1   force =     0.00051464   -0.01922132   -0.02574115
     atom   10 type  2   force =    -0.00019323   -0.00015699   -0.00048087
     atom   11 type  2   force =     0.00024883    0.00014661   -0.00063811
     atom   12 type  1   force =    -0.00208661   -0.27315834   -0.03481724
     atom   13 type  2   force =    -0.46037274   -3.62777354    0.04043393
     atom   14 type  2   force =     0.00119154    0.01438901    0.00553532
     atom   15 type  2   force =    -0.00132553    0.01278746    0.00407133
     atom   16 type  2   force =     0.00027634    0.00306250    0.00000321
     atom   17 type  2   force =    -0.00028993    0.00335233   -0.00006283

     Total force =     5.186875     Total SCF correction =     0.000000

     Writing output data file ./Pentasilane.save/

     init_run     :      0.93s CPU      0.98s WALL (       1 calls)
     electrons    :     20.24s CPU     20.61s WALL (       1 calls)
     forces       :      0.67s CPU      0.69s WALL (       1 calls)

     Called by init_run:
     wfcinit      :      0.46s CPU      0.47s WALL (       1 calls)
     potinit      :      0.30s CPU      0.32s WALL (       1 calls)
     hinit0       :      0.11s CPU      0.12s WALL (       1 calls)

     Called by electrons:
     c_bands      :     13.27s CPU     13.36s WALL (      19 calls)
     sum_band     :      2.31s CPU      2.33s WALL (      19 calls)
     v_of_rho     :      3.80s CPU      4.04s WALL (      20 calls)
     mix_rho      :      0.93s CPU      0.94s WALL (      19 calls)

     Called by c_bands:
     init_us_2    :      0.28s CPU      0.29s WALL (      39 calls)
     regterg      :     12.70s CPU     12.78s WALL (      19 calls)

     Called by *egterg:
     rdiaghg      :      0.09s CPU      0.09s WALL (     109 calls)
     h_psi        :     11.32s CPU     11.40s WALL (     110 calls)
     g_psi        :      0.02s CPU      0.02s WALL (      90 calls)

     Called by h_psi:
     h_psi:calbec :      2.32s CPU      2.32s WALL (     110 calls)
     vloc_psi     :      7.19s CPU      7.25s WALL (     110 calls)
     add_vuspsi   :      1.76s CPU      1.77s WALL (     110 calls)

     General routines
     calbec       :      2.48s CPU      2.49s WALL (     114 calls)
     fft          :      2.47s CPU      2.52s WALL (     168 calls)
     ffts         :      0.26s CPU      0.27s WALL (      19 calls)
     fftw         :      6.70s CPU      6.75s WALL (    1074 calls)

     Parallel routines

     PWSCF        :     21.95s CPU     22.40s WALL


   This run was terminated on:   2:33:16  24May2021            

=------------------------------------------------------------------------------=
   JOB DONE.
=------------------------------------------------------------------------------=
