
     Program PWSCF v.6.7GPU starts on 24May2021 at  1:29:26 

     This program is part of the open-source Quantum ESPRESSO suite
     for quantum simulation of materials; please cite
         "P. Giannozzi et al., J. Phys.:Condens. Matter 21 395502 (2009);
         "P. Giannozzi et al., J. Phys.:Condens. Matter 29 465901 (2017);
         "P. Giannozzi et al., J. Chem. Phys. 152 154105 (2020);
          URL http://www.quantum-espresso.org", 
     in publications or presentations arising from this work. More details at
     http://www.quantum-espresso.org/quote

     Parallel version (MPI), running on     4 processors

     MPI processes distributed on     1 nodes
     R & G space division:  proc/nbgrp/npool/nimage =       4
     Waiting for input...
     Reading input from standard input
     Message from routine read_cards :
     DEPRECATED: no units specified in CELL_PARAMETERS card

     Current dimensions of program PWSCF are:
     Max number of different atomic species (ntypx) = 10
     Max number of k-points (npk) =  40000
     Max angular momentum in pseudopotentials (lmaxx) =  3

     gamma-point specific algorithms are used

     Subspace diagonalization in iterative solution of the eigenvalue problem:
     one sub-group per band group will be used
     scalapack distributed-memory algorithm (size of sub-group:  2*  2 procs)


     Parallelization info
     --------------------
     sticks:   dense  smooth     PW     G-vecs:    dense   smooth      PW
     Min        2700    2700    675               211636   211636   26505
     Max        2704    2704    678               211641   211641   26514
     Sum       10805   10805   2709               846553   846553  106047

     Using Slab Decomposition



     bravais-lattice index     =            0
     lattice parameter (alat)  =      20.0000  a.u.
     unit-cell volume          =    8000.0000 (a.u.)^3
     number of atoms/cell      =           13
     number of atomic types    =            3
     number of electrons       =        36.00
     number of Kohn-Sham states=           18
     kinetic-energy cutoff     =      85.0000  Ry
     charge density cutoff     =     340.0000  Ry
     scf convergence threshold =      1.0E-12
     mixing beta               =       0.5000
     number of iterations used =            8  plain     mixing
     Exchange-correlation= PBE
                           (   1   4   3   4   0   0   0)

     celldm(1)=  20.000000  celldm(2)=   0.000000  celldm(3)=   0.000000
     celldm(4)=   0.000000  celldm(5)=   0.000000  celldm(6)=   0.000000

     crystal axes: (cart. coord. in units of alat)
               a(1) = (   1.000000   0.000000   0.000000 )  
               a(2) = (   0.000000   1.000000   0.000000 )  
               a(3) = (   0.000000   0.000000   1.000000 )  

     reciprocal axes: (cart. coord. in units 2 pi/alat)
               b(1) = (  1.000000  0.000000  0.000000 )  
               b(2) = (  0.000000  1.000000  0.000000 )  
               b(3) = (  0.000000  0.000000  1.000000 )  


     PseudoPot. # 1 for C  read from file:
     /home/ciga/builds/pseudo_potentials/C.upf
     MD5 check sum: d80ec9912146af6c4c1760317d1f95e9
     Pseudo is Norm-conserving + core correction, Zval =  4.0
     Generated using ONCVPSP code by D. R. Hamann
     Using radial grid of 1248 points,  4 beta functions with: 
                l(1) =   0
                l(2) =   0
                l(3) =   1
                l(4) =   1

     PseudoPot. # 2 for H  read from file:
     /home/ciga/builds/pseudo_potentials/H.upf
     MD5 check sum: 418cee52d0c413ae40802e6cc37ab9e3
     Pseudo is Norm-conserving, Zval =  1.0
     Generated using ONCVPSP code by D. R. Hamann
     Using radial grid of 1166 points,  3 beta functions with: 
                l(1) =   0
                l(2) =   0
                l(3) =   1

     PseudoPot. # 3 for O  read from file:
     /home/ciga/builds/pseudo_potentials/O.upf
     MD5 check sum: e357869f07dbe8d608261c380baea405
     Pseudo is Norm-conserving + core correction, Zval =  6.0
     Generated using ONCVPSP code by D. R. Hamann
     Using radial grid of  936 points,  5 beta functions with: 
                l(1) =   0
                l(2) =   0
                l(3) =   1
                l(4) =   1
                l(5) =   2

     atomic species   valence    mass     pseudopotential
        C              4.00    12.01070     C ( 1.00)
        H              1.00     1.00794     H ( 1.00)
        O              6.00    15.99940     O ( 1.00)

     No symmetry found



   Cartesian axes

     site n.     atom                  positions (alat units)
         1           C   tau(   1) = (   0.4304248   0.5349588   0.4241547  )
         2           C   tau(   2) = (   0.4332159   0.2686643   0.4250854  )
         3           C   tau(   3) = (   0.3192466   0.3352629   0.4250835  )
         4           C   tau(   4) = (   0.3173984   0.4671365   0.4251950  )
         5           C   tau(   5) = (   0.5441136   0.4675815   0.4254529  )
         6           C   tau(   6) = (   0.5470606   0.3354462   0.4252196  )
         7           H   tau(   7) = (   0.4367478   0.1663828   0.4247726  )
         8           H   tau(   8) = (   0.3431658   0.6917635   0.4273795  )
         9           H   tau(   9) = (   0.2338168   0.2800225   0.4250155  )
        10           H   tau(  10) = (   0.2252828   0.5120959   0.4248737  )
        11           H   tau(  11) = (   0.6325896   0.5189821   0.4250145  )
        12           H   tau(  12) = (   0.6356283   0.2854630   0.4249200  )
        13           O   tau(  13) = (   0.4287505   0.6636728   0.4252309  )

     number of k points=     1
                       cart. coord. in units 2pi/alat
        k(    1) = (   0.0000000   0.0000000   0.0000000), wk =   2.0000000

     Dense  grid:   423277 G-vectors     FFT dimensions: ( 120, 120, 120)

     Estimated max dynamical RAM per process >     119.86 MB

     Estimated total dynamical RAM >     479.44 MB

     Initial potential from superposition of free atoms

     starting charge   35.99967, renormalised to   36.00000

     negative rho (up, down):  4.082E-05 0.000E+00
     Starting wfcs are   34 randomized atomic wfcs

     total cpu time spent up to now is        2.2 secs

     Self-consistent Calculation

     iteration #  1     ecut=    85.00 Ry     beta= 0.50
     Davidson diagonalization with overlap
     ethr =  1.00E-02,  avg # of iterations =  2.0

     negative rho (up, down):  5.704E-06 0.000E+00

     total cpu time spent up to now is        4.6 secs

     total energy              =    -112.11524949 Ry
     estimated scf accuracy    <       1.50795798 Ry

     iteration #  2     ecut=    85.00 Ry     beta= 0.50
     Davidson diagonalization with overlap
     ethr =  4.19E-03,  avg # of iterations =  2.0

     negative rho (up, down):  1.236E-06 0.000E+00

     total cpu time spent up to now is        7.0 secs

     total energy              =    -112.34310375 Ry
     estimated scf accuracy    <       0.10930639 Ry

     iteration #  3     ecut=    85.00 Ry     beta= 0.50
     Davidson diagonalization with overlap
     ethr =  3.04E-04,  avg # of iterations =  2.0

     negative rho (up, down):  7.781E-08 0.000E+00

     total cpu time spent up to now is        9.0 secs

     total energy              =    -112.34553954 Ry
     estimated scf accuracy    <       0.02078914 Ry

     iteration #  4     ecut=    85.00 Ry     beta= 0.50
     Davidson diagonalization with overlap
     ethr =  5.77E-05,  avg # of iterations =  2.0

     negative rho (up, down):  1.412E-08 0.000E+00

     total cpu time spent up to now is       11.3 secs

     total energy              =    -112.34867429 Ry
     estimated scf accuracy    <       0.00133390 Ry

     iteration #  5     ecut=    85.00 Ry     beta= 0.50
     Davidson diagonalization with overlap
     ethr =  3.71E-06,  avg # of iterations =  2.0

     total cpu time spent up to now is       13.7 secs

     total energy              =    -112.34889166 Ry
     estimated scf accuracy    <       0.00012788 Ry

     iteration #  6     ecut=    85.00 Ry     beta= 0.50
     Davidson diagonalization with overlap
     ethr =  3.55E-07,  avg # of iterations =  5.0

     total cpu time spent up to now is       16.4 secs

     total energy              =    -112.34892562 Ry
     estimated scf accuracy    <       0.00008321 Ry

     iteration #  7     ecut=    85.00 Ry     beta= 0.50
     Davidson diagonalization with overlap
     ethr =  2.31E-07,  avg # of iterations =  5.0

     total cpu time spent up to now is       18.7 secs

     total energy              =    -112.34894060 Ry
     estimated scf accuracy    <       0.00000707 Ry

     iteration #  8     ecut=    85.00 Ry     beta= 0.50
     Davidson diagonalization with overlap
     ethr =  1.96E-08,  avg # of iterations =  5.0

     total cpu time spent up to now is       21.4 secs

     total energy              =    -112.34893985 Ry
     estimated scf accuracy    <       0.00000974 Ry

     iteration #  9     ecut=    85.00 Ry     beta= 0.50
     Davidson diagonalization with overlap
     ethr =  1.96E-08,  avg # of iterations =  4.0

     total cpu time spent up to now is       24.0 secs

     total energy              =    -112.34894162 Ry
     estimated scf accuracy    <       0.00000023 Ry

     iteration # 10     ecut=    85.00 Ry     beta= 0.50
     Davidson diagonalization with overlap
     ethr =  6.40E-10,  avg # of iterations =  5.0

     total cpu time spent up to now is       26.9 secs

     total energy              =    -112.34894172 Ry
     estimated scf accuracy    <       0.00000003 Ry

     iteration # 11     ecut=    85.00 Ry     beta= 0.50
     Davidson diagonalization with overlap
     ethr =  7.03E-11,  avg # of iterations =  5.0

     total cpu time spent up to now is       29.5 secs

     total energy              =    -112.34894173 Ry
     estimated scf accuracy    <       0.00000002 Ry

     iteration # 12     ecut=    85.00 Ry     beta= 0.50
     Davidson diagonalization with overlap
     ethr =  4.26E-11,  avg # of iterations =  3.0

     total cpu time spent up to now is       31.7 secs

     total energy              =    -112.34894173 Ry
     estimated scf accuracy    <          2.1E-09 Ry

     iteration # 13     ecut=    85.00 Ry     beta= 0.50
     Davidson diagonalization with overlap
     ethr =  5.73E-12,  avg # of iterations =  6.0

     total cpu time spent up to now is       34.5 secs

     total energy              =    -112.34894173 Ry
     estimated scf accuracy    <          3.8E-10 Ry

     iteration # 14     ecut=    85.00 Ry     beta= 0.50
     Davidson diagonalization with overlap
     ethr =  1.05E-12,  avg # of iterations =  4.0

     total cpu time spent up to now is       36.8 secs

     total energy              =    -112.34894173 Ry
     estimated scf accuracy    <          9.2E-11 Ry

     iteration # 15     ecut=    85.00 Ry     beta= 0.50
     Davidson diagonalization with overlap
     ethr =  2.54E-13,  avg # of iterations =  6.0

     total cpu time spent up to now is       39.6 secs

     total energy              =    -112.34894173 Ry
     estimated scf accuracy    <          7.0E-11 Ry

     iteration # 16     ecut=    85.00 Ry     beta= 0.50
     Davidson diagonalization with overlap
     ethr =  1.94E-13,  avg # of iterations =  5.0

     total cpu time spent up to now is       41.9 secs

     total energy              =    -112.34894173 Ry
     estimated scf accuracy    <          3.4E-12 Ry

     iteration # 17     ecut=    85.00 Ry     beta= 0.50
     Davidson diagonalization with overlap
     ethr =  1.00E-13,  avg # of iterations =  1.0

     total cpu time spent up to now is       43.8 secs

     total energy              =    -112.34894173 Ry
     estimated scf accuracy    <          1.4E-12 Ry

     iteration # 18     ecut=    85.00 Ry     beta= 0.50
     Davidson diagonalization with overlap
     ethr =  1.00E-13,  avg # of iterations =  1.0

     total cpu time spent up to now is       45.6 secs

     End of self-consistent calculation

          k = 0.0000 0.0000 0.0000 ( 53024 PWs)   bands (ev):

   -26.2236 -20.5496 -17.9173 -17.7207 -14.9238 -14.2986 -13.0288 -11.6445
   -10.9177 -10.1742  -9.6427  -9.4865  -8.7661  -8.1133  -7.6437  -7.4853
    -5.7278  -4.9569

     highest occupied level (ev):    -4.9569

!    total energy              =    -112.34894173 Ry
     estimated scf accuracy    <          5.4E-13 Ry

     The total energy is the sum of the following terms:
     one-electron contribution =    -365.65725561 Ry
     hartree contribution      =     188.12228950 Ry
     xc contribution           =     -38.23305613 Ry
     ewald contribution        =     103.41908051 Ry

     convergence has been achieved in  18 iterations

     Forces acting on atoms (cartesian axes, Ry/au):

     atom    1 type  1   force =    -0.01821485   -0.01756917    0.00723516
     atom    2 type  1   force =     0.01224854    0.00686561   -0.00032964
     atom    3 type  1   force =     0.02230067   -0.00922856    0.00037485
     atom    4 type  1   force =    -0.01188096   -0.02921794   -0.00302307
     atom    5 type  1   force =     0.02022646    0.00694247   -0.00400104
     atom    6 type  1   force =    -0.03367375    0.02115639   -0.00011758
     atom    7 type  2   force =    -0.00821458   -0.00725955    0.00010568
     atom    8 type  2   force =    -0.02359765    0.00600241    0.00002892
     atom    9 type  2   force =    -0.02093048    0.00123417    0.00020393
     atom   10 type  2   force =    -0.00293156    0.01457855    0.00030169
     atom   11 type  2   force =     0.00588123    0.00864767    0.00070024
     atom   12 type  2   force =     0.01568243   -0.00393407    0.00048770
     atom   13 type  3   force =     0.04310450    0.00178201   -0.00196685

     Total force =     0.090233     Total SCF correction =     0.000002

     Writing output data file ./Phenol.save/

     init_run     :      2.00s CPU      2.11s WALL (       1 calls)
     electrons    :     42.75s CPU     43.37s WALL (       1 calls)
     forces       :      1.31s CPU      1.33s WALL (       1 calls)

     Called by init_run:
     wfcinit      :      0.96s CPU      0.98s WALL (       1 calls)
     potinit      :      0.59s CPU      0.66s WALL (       1 calls)
     hinit0       :      0.26s CPU      0.28s WALL (       1 calls)

     Called by electrons:
     c_bands      :     28.43s CPU     28.60s WALL (      18 calls)
     sum_band     :      5.01s CPU      5.05s WALL (      18 calls)
     v_of_rho     :      7.27s CPU      7.70s WALL (      19 calls)
     mix_rho      :      2.19s CPU      2.21s WALL (      18 calls)

     Called by c_bands:
     init_us_2    :      0.39s CPU      0.41s WALL (      37 calls)
     regterg      :     27.91s CPU     28.08s WALL (      18 calls)

     Called by *egterg:
     rdiaghg      :      0.08s CPU      0.08s WALL (      83 calls)
     h_psi        :     23.51s CPU     23.65s WALL (      84 calls)
     g_psi        :      0.06s CPU      0.06s WALL (      65 calls)

     Called by h_psi:
     h_psi:calbec :      3.27s CPU      3.28s WALL (      84 calls)
     vloc_psi     :     17.37s CPU     17.50s WALL (      84 calls)
     add_vuspsi   :      2.73s CPU      2.74s WALL (      84 calls)

     General routines
     calbec       :      3.53s CPU      3.54s WALL (      88 calls)
     fft          :      5.71s CPU      5.83s WALL (     160 calls)
     ffts         :      0.54s CPU      0.55s WALL (      18 calls)
     fftw         :     16.37s CPU     16.48s WALL (    1150 calls)

     Parallel routines

     PWSCF        :     46.19s CPU     46.99s WALL


   This run was terminated on:   1:30:13  24May2021            

=------------------------------------------------------------------------------=
   JOB DONE.
=------------------------------------------------------------------------------=
