
     Program PWSCF v.6.7GPU starts on 24May2021 at  1:28:39 

     This program is part of the open-source Quantum ESPRESSO suite
     for quantum simulation of materials; please cite
         "P. Giannozzi et al., J. Phys.:Condens. Matter 21 395502 (2009);
         "P. Giannozzi et al., J. Phys.:Condens. Matter 29 465901 (2017);
         "P. Giannozzi et al., J. Chem. Phys. 152 154105 (2020);
          URL http://www.quantum-espresso.org", 
     in publications or presentations arising from this work. More details at
     http://www.quantum-espresso.org/quote

     Parallel version (MPI), running on     4 processors

     MPI processes distributed on     1 nodes
     R & G space division:  proc/nbgrp/npool/nimage =       4
     Waiting for input...
     Reading input from standard input
     Message from routine read_cards :
     DEPRECATED: no units specified in CELL_PARAMETERS card

     Current dimensions of program PWSCF are:
     Max number of different atomic species (ntypx) = 10
     Max number of k-points (npk) =  40000
     Max angular momentum in pseudopotentials (lmaxx) =  3

     gamma-point specific algorithms are used

     Subspace diagonalization in iterative solution of the eigenvalue problem:
     one sub-group per band group will be used
     scalapack distributed-memory algorithm (size of sub-group:  2*  2 procs)


     Parallelization info
     --------------------
     sticks:   dense  smooth     PW     G-vecs:    dense   smooth      PW
     Min        2543    2543    637               193371   193371   24241
     Max        2548    2548    642               193374   193374   24244
     Sum       10185   10185   2561               773489   773489   96969

     Using Slab Decomposition



     bravais-lattice index     =            0
     lattice parameter (alat)  =      20.0000  a.u.
     unit-cell volume          =    8000.0000 (a.u.)^3
     number of atoms/cell      =           13
     number of atomic types    =            3
     number of electrons       =        36.00
     number of Kohn-Sham states=           18
     kinetic-energy cutoff     =      80.0000  Ry
     charge density cutoff     =     320.0000  Ry
     scf convergence threshold =      1.0E-12
     mixing beta               =       0.5000
     number of iterations used =            8  plain     mixing
     Exchange-correlation= PBE
                           (   1   4   3   4   0   0   0)

     celldm(1)=  20.000000  celldm(2)=   0.000000  celldm(3)=   0.000000
     celldm(4)=   0.000000  celldm(5)=   0.000000  celldm(6)=   0.000000

     crystal axes: (cart. coord. in units of alat)
               a(1) = (   1.000000   0.000000   0.000000 )  
               a(2) = (   0.000000   1.000000   0.000000 )  
               a(3) = (   0.000000   0.000000   1.000000 )  

     reciprocal axes: (cart. coord. in units 2 pi/alat)
               b(1) = (  1.000000  0.000000  0.000000 )  
               b(2) = (  0.000000  1.000000  0.000000 )  
               b(3) = (  0.000000  0.000000  1.000000 )  


     PseudoPot. # 1 for C  read from file:
     /home/ciga/builds/pseudo_potentials/C.upf
     MD5 check sum: d80ec9912146af6c4c1760317d1f95e9
     Pseudo is Norm-conserving + core correction, Zval =  4.0
     Generated using ONCVPSP code by D. R. Hamann
     Using radial grid of 1248 points,  4 beta functions with: 
                l(1) =   0
                l(2) =   0
                l(3) =   1
                l(4) =   1

     PseudoPot. # 2 for H  read from file:
     /home/ciga/builds/pseudo_potentials/H.upf
     MD5 check sum: 418cee52d0c413ae40802e6cc37ab9e3
     Pseudo is Norm-conserving, Zval =  1.0
     Generated using ONCVPSP code by D. R. Hamann
     Using radial grid of 1166 points,  3 beta functions with: 
                l(1) =   0
                l(2) =   0
                l(3) =   1

     PseudoPot. # 3 for O  read from file:
     /home/ciga/builds/pseudo_potentials/O.upf
     MD5 check sum: e357869f07dbe8d608261c380baea405
     Pseudo is Norm-conserving + core correction, Zval =  6.0
     Generated using ONCVPSP code by D. R. Hamann
     Using radial grid of  936 points,  5 beta functions with: 
                l(1) =   0
                l(2) =   0
                l(3) =   1
                l(4) =   1
                l(5) =   2

     atomic species   valence    mass     pseudopotential
        C              4.00    12.01070     C ( 1.00)
        H              1.00     1.00794     H ( 1.00)
        O              6.00    15.99940     O ( 1.00)

     No symmetry found



   Cartesian axes

     site n.     atom                  positions (alat units)
         1           C   tau(   1) = (   0.4304248   0.5349588   0.4241547  )
         2           C   tau(   2) = (   0.4332159   0.2686643   0.4250854  )
         3           C   tau(   3) = (   0.3192466   0.3352629   0.4250835  )
         4           C   tau(   4) = (   0.3173984   0.4671365   0.4251950  )
         5           C   tau(   5) = (   0.5441136   0.4675815   0.4254529  )
         6           C   tau(   6) = (   0.5470606   0.3354462   0.4252196  )
         7           H   tau(   7) = (   0.4367478   0.1663828   0.4247726  )
         8           H   tau(   8) = (   0.3431658   0.6917635   0.4273795  )
         9           H   tau(   9) = (   0.2338168   0.2800225   0.4250155  )
        10           H   tau(  10) = (   0.2252828   0.5120959   0.4248737  )
        11           H   tau(  11) = (   0.6325896   0.5189821   0.4250145  )
        12           H   tau(  12) = (   0.6356283   0.2854630   0.4249200  )
        13           O   tau(  13) = (   0.4287505   0.6636728   0.4252309  )

     number of k points=     1
                       cart. coord. in units 2pi/alat
        k(    1) = (   0.0000000   0.0000000   0.0000000), wk =   2.0000000

     Dense  grid:   386745 G-vectors     FFT dimensions: ( 120, 120, 120)

     Estimated max dynamical RAM per process >     112.23 MB

     Estimated total dynamical RAM >     448.94 MB

     Initial potential from superposition of free atoms

     starting charge   35.99967, renormalised to   36.00000

     negative rho (up, down):  7.753E-05 0.000E+00
     Starting wfcs are   34 randomized atomic wfcs

     total cpu time spent up to now is        2.2 secs

     Self-consistent Calculation

     iteration #  1     ecut=    80.00 Ry     beta= 0.50
     Davidson diagonalization with overlap
     ethr =  1.00E-02,  avg # of iterations =  2.0

     negative rho (up, down):  1.781E-05 0.000E+00

     total cpu time spent up to now is        4.5 secs

     total energy              =    -112.11428652 Ry
     estimated scf accuracy    <       1.50866622 Ry

     iteration #  2     ecut=    80.00 Ry     beta= 0.50
     Davidson diagonalization with overlap
     ethr =  4.19E-03,  avg # of iterations =  2.0

     negative rho (up, down):  4.979E-06 0.000E+00

     total cpu time spent up to now is        6.8 secs

     total energy              =    -112.34274379 Ry
     estimated scf accuracy    <       0.10949158 Ry

     iteration #  3     ecut=    80.00 Ry     beta= 0.50
     Davidson diagonalization with overlap
     ethr =  3.04E-04,  avg # of iterations =  2.0

     negative rho (up, down):  4.137E-07 0.000E+00

     total cpu time spent up to now is        8.7 secs

     total energy              =    -112.34512650 Ry
     estimated scf accuracy    <       0.02088343 Ry

     iteration #  4     ecut=    80.00 Ry     beta= 0.50
     Davidson diagonalization with overlap
     ethr =  5.80E-05,  avg # of iterations =  2.0

     negative rho (up, down):  9.134E-08 0.000E+00

     total cpu time spent up to now is       10.9 secs

     total energy              =    -112.34828025 Ry
     estimated scf accuracy    <       0.00135930 Ry

     iteration #  5     ecut=    80.00 Ry     beta= 0.50
     Davidson diagonalization with overlap
     ethr =  3.78E-06,  avg # of iterations =  2.0

     negative rho (up, down):  1.775E-08 0.000E+00

     total cpu time spent up to now is       13.3 secs

     total energy              =    -112.34849621 Ry
     estimated scf accuracy    <       0.00013176 Ry

     iteration #  6     ecut=    80.00 Ry     beta= 0.50
     Davidson diagonalization with overlap
     ethr =  3.66E-07,  avg # of iterations =  5.0

     total cpu time spent up to now is       15.9 secs

     total energy              =    -112.34853003 Ry
     estimated scf accuracy    <       0.00008693 Ry

     iteration #  7     ecut=    80.00 Ry     beta= 0.50
     Davidson diagonalization with overlap
     ethr =  2.41E-07,  avg # of iterations =  5.0

     total cpu time spent up to now is       18.1 secs

     total energy              =    -112.34854581 Ry
     estimated scf accuracy    <       0.00000735 Ry

     iteration #  8     ecut=    80.00 Ry     beta= 0.50
     Davidson diagonalization with overlap
     ethr =  2.04E-08,  avg # of iterations =  5.0

     total cpu time spent up to now is       20.7 secs

     total energy              =    -112.34854493 Ry
     estimated scf accuracy    <       0.00000962 Ry

     iteration #  9     ecut=    80.00 Ry     beta= 0.50
     Davidson diagonalization with overlap
     ethr =  2.04E-08,  avg # of iterations =  4.0

     total cpu time spent up to now is       23.2 secs

     total energy              =    -112.34854690 Ry
     estimated scf accuracy    <       0.00000019 Ry

     iteration # 10     ecut=    80.00 Ry     beta= 0.50
     Davidson diagonalization with overlap
     ethr =  5.33E-10,  avg # of iterations =  3.0

     total cpu time spent up to now is       25.8 secs

     total energy              =    -112.34854697 Ry
     estimated scf accuracy    <       0.00000002 Ry

     iteration # 11     ecut=    80.00 Ry     beta= 0.50
     Davidson diagonalization with overlap
     ethr =  4.63E-11,  avg # of iterations =  6.0

     total cpu time spent up to now is       28.9 secs

     total energy              =    -112.34854697 Ry
     estimated scf accuracy    <       0.00000003 Ry

     iteration # 12     ecut=    80.00 Ry     beta= 0.50
     Davidson diagonalization with overlap
     ethr =  4.63E-11,  avg # of iterations =  5.0

     total cpu time spent up to now is       31.3 secs

     total energy              =    -112.34854698 Ry
     estimated scf accuracy    <          8.4E-10 Ry

     iteration # 13     ecut=    80.00 Ry     beta= 0.50
     Davidson diagonalization with overlap
     ethr =  2.32E-12,  avg # of iterations =  6.0

     total cpu time spent up to now is       34.2 secs

     total energy              =    -112.34854698 Ry
     estimated scf accuracy    <          1.3E-09 Ry

     iteration # 14     ecut=    80.00 Ry     beta= 0.50
     Davidson diagonalization with overlap
     ethr =  2.32E-12,  avg # of iterations =  5.0

     total cpu time spent up to now is       36.4 secs

     total energy              =    -112.34854698 Ry
     estimated scf accuracy    <          2.3E-10 Ry

     iteration # 15     ecut=    80.00 Ry     beta= 0.50
     Davidson diagonalization with overlap
     ethr =  6.38E-13,  avg # of iterations =  4.0

     total cpu time spent up to now is       38.8 secs

     total energy              =    -112.34854698 Ry
     estimated scf accuracy    <          4.4E-11 Ry

     iteration # 16     ecut=    80.00 Ry     beta= 0.50
     Davidson diagonalization with overlap
     ethr =  1.23E-13,  avg # of iterations =  6.0

     total cpu time spent up to now is       41.4 secs

     total energy              =    -112.34854698 Ry
     estimated scf accuracy    <          1.9E-11 Ry

     iteration # 17     ecut=    80.00 Ry     beta= 0.50
     Davidson diagonalization with overlap
     ethr =  1.00E-13,  avg # of iterations =  2.0

     total cpu time spent up to now is       43.3 secs

     total energy              =    -112.34854698 Ry
     estimated scf accuracy    <          5.6E-12 Ry

     iteration # 18     ecut=    80.00 Ry     beta= 0.50
     Davidson diagonalization with overlap
     ethr =  1.00E-13,  avg # of iterations =  3.0

     total cpu time spent up to now is       45.1 secs

     End of self-consistent calculation

          k = 0.0000 0.0000 0.0000 ( 48485 PWs)   bands (ev):

   -26.2238 -20.5498 -17.9175 -17.7209 -14.9239 -14.2987 -13.0288 -11.6445
   -10.9178 -10.1743  -9.6428  -9.4865  -8.7662  -8.1133  -7.6437  -7.4853
    -5.7278  -4.9569

     highest occupied level (ev):    -4.9569

!    total energy              =    -112.34854698 Ry
     estimated scf accuracy    <          2.7E-13 Ry

     The total energy is the sum of the following terms:
     one-electron contribution =    -365.65666849 Ry
     hartree contribution      =     188.12184368 Ry
     xc contribution           =     -38.23280267 Ry
     ewald contribution        =     103.41908051 Ry

     convergence has been achieved in  18 iterations

     Forces acting on atoms (cartesian axes, Ry/au):

     atom    1 type  1   force =    -0.01821435   -0.01755136    0.00723372
     atom    2 type  1   force =     0.01224764    0.00685400   -0.00032932
     atom    3 type  1   force =     0.02228937   -0.00923258    0.00037457
     atom    4 type  1   force =    -0.01189490   -0.02922031   -0.00302301
     atom    5 type  1   force =     0.02024170    0.00694334   -0.00400024
     atom    6 type  1   force =    -0.03366400    0.02115196   -0.00011750
     atom    7 type  2   force =    -0.00821400   -0.00727069    0.00010573
     atom    8 type  2   force =    -0.02360961    0.00600929    0.00002932
     atom    9 type  2   force =    -0.02093984    0.00122749    0.00020399
     atom   10 type  2   force =    -0.00294125    0.01458215    0.00030171
     atom   11 type  2   force =     0.00589009    0.00865264    0.00070024
     atom   12 type  2   force =     0.01569240   -0.00393967    0.00048774
     atom   13 type  3   force =     0.04311674    0.00179372   -0.00196695

     Total force =     0.090244     Total SCF correction =     0.000001

     Writing output data file ./Phenol.save/

     init_run     :      1.96s CPU      2.05s WALL (       1 calls)
     electrons    :     42.30s CPU     43.01s WALL (       1 calls)
     forces       :      1.24s CPU      1.26s WALL (       1 calls)

     Called by init_run:
     wfcinit      :      0.93s CPU      0.94s WALL (       1 calls)
     potinit      :      0.61s CPU      0.65s WALL (       1 calls)
     hinit0       :      0.27s CPU      0.29s WALL (       1 calls)

     Called by electrons:
     c_bands      :     28.45s CPU     28.65s WALL (      18 calls)
     sum_band     :      4.87s CPU      4.90s WALL (      18 calls)
     v_of_rho     :      7.11s CPU      7.58s WALL (      19 calls)
     mix_rho      :      2.03s CPU      2.06s WALL (      18 calls)

     Called by c_bands:
     init_us_2    :      0.36s CPU      0.37s WALL (      37 calls)
     regterg      :     27.97s CPU     28.16s WALL (      18 calls)

     Called by *egterg:
     rdiaghg      :      0.08s CPU      0.08s WALL (      87 calls)
     h_psi        :     23.60s CPU     23.77s WALL (      88 calls)
     g_psi        :      0.06s CPU      0.06s WALL (      69 calls)

     Called by h_psi:
     h_psi:calbec :      3.20s CPU      3.21s WALL (      88 calls)
     vloc_psi     :     17.67s CPU     17.82s WALL (      88 calls)
     add_vuspsi   :      2.61s CPU      2.61s WALL (      88 calls)

     General routines
     calbec       :      3.44s CPU      3.45s WALL (      92 calls)
     fft          :      5.54s CPU      5.65s WALL (     160 calls)
     ffts         :      0.50s CPU      0.51s WALL (      18 calls)
     fftw         :     16.68s CPU     16.79s WALL (    1194 calls)

     Parallel routines

     PWSCF        :     45.62s CPU     46.47s WALL


   This run was terminated on:   1:29:25  24May2021            

=------------------------------------------------------------------------------=
   JOB DONE.
=------------------------------------------------------------------------------=
