
     Program PWSCF v.6.7GPU starts on 24May2021 at  1:25:52 

     This program is part of the open-source Quantum ESPRESSO suite
     for quantum simulation of materials; please cite
         "P. Giannozzi et al., J. Phys.:Condens. Matter 21 395502 (2009);
         "P. Giannozzi et al., J. Phys.:Condens. Matter 29 465901 (2017);
         "P. Giannozzi et al., J. Chem. Phys. 152 154105 (2020);
          URL http://www.quantum-espresso.org", 
     in publications or presentations arising from this work. More details at
     http://www.quantum-espresso.org/quote

     Parallel version (MPI), running on     4 processors

     MPI processes distributed on     1 nodes
     R & G space division:  proc/nbgrp/npool/nimage =       4
     Waiting for input...
     Reading input from standard input
     Message from routine read_cards :
     DEPRECATED: no units specified in CELL_PARAMETERS card

     Current dimensions of program PWSCF are:
     Max number of different atomic species (ntypx) = 10
     Max number of k-points (npk) =  40000
     Max angular momentum in pseudopotentials (lmaxx) =  3

     gamma-point specific algorithms are used

     Subspace diagonalization in iterative solution of the eigenvalue problem:
     one sub-group per band group will be used
     scalapack distributed-memory algorithm (size of sub-group:  2*  2 procs)


     Parallelization info
     --------------------
     sticks:   dense  smooth     PW     G-vecs:    dense   smooth      PW
     Min        1753    1753    438               110351   110351   13793
     Max        1756    1756    440               110356   110356   13796
     Sum        7017    7017   1757               441415   441415   55179

     Using Slab Decomposition



     bravais-lattice index     =            0
     lattice parameter (alat)  =      20.0000  a.u.
     unit-cell volume          =    8000.0000 (a.u.)^3
     number of atoms/cell      =           13
     number of atomic types    =            3
     number of electrons       =        36.00
     number of Kohn-Sham states=           18
     kinetic-energy cutoff     =      55.0000  Ry
     charge density cutoff     =     220.0000  Ry
     scf convergence threshold =      1.0E-12
     mixing beta               =       0.5000
     number of iterations used =            8  plain     mixing
     Exchange-correlation= PBE
                           (   1   4   3   4   0   0   0)

     celldm(1)=  20.000000  celldm(2)=   0.000000  celldm(3)=   0.000000
     celldm(4)=   0.000000  celldm(5)=   0.000000  celldm(6)=   0.000000

     crystal axes: (cart. coord. in units of alat)
               a(1) = (   1.000000   0.000000   0.000000 )  
               a(2) = (   0.000000   1.000000   0.000000 )  
               a(3) = (   0.000000   0.000000   1.000000 )  

     reciprocal axes: (cart. coord. in units 2 pi/alat)
               b(1) = (  1.000000  0.000000  0.000000 )  
               b(2) = (  0.000000  1.000000  0.000000 )  
               b(3) = (  0.000000  0.000000  1.000000 )  


     PseudoPot. # 1 for C  read from file:
     /home/ciga/builds/pseudo_potentials/C.upf
     MD5 check sum: d80ec9912146af6c4c1760317d1f95e9
     Pseudo is Norm-conserving + core correction, Zval =  4.0
     Generated using ONCVPSP code by D. R. Hamann
     Using radial grid of 1248 points,  4 beta functions with: 
                l(1) =   0
                l(2) =   0
                l(3) =   1
                l(4) =   1

     PseudoPot. # 2 for H  read from file:
     /home/ciga/builds/pseudo_potentials/H.upf
     MD5 check sum: 418cee52d0c413ae40802e6cc37ab9e3
     Pseudo is Norm-conserving, Zval =  1.0
     Generated using ONCVPSP code by D. R. Hamann
     Using radial grid of 1166 points,  3 beta functions with: 
                l(1) =   0
                l(2) =   0
                l(3) =   1

     PseudoPot. # 3 for O  read from file:
     /home/ciga/builds/pseudo_potentials/O.upf
     MD5 check sum: e357869f07dbe8d608261c380baea405
     Pseudo is Norm-conserving + core correction, Zval =  6.0
     Generated using ONCVPSP code by D. R. Hamann
     Using radial grid of  936 points,  5 beta functions with: 
                l(1) =   0
                l(2) =   0
                l(3) =   1
                l(4) =   1
                l(5) =   2

     atomic species   valence    mass     pseudopotential
        C              4.00    12.01070     C ( 1.00)
        H              1.00     1.00794     H ( 1.00)
        O              6.00    15.99940     O ( 1.00)

     No symmetry found



   Cartesian axes

     site n.     atom                  positions (alat units)
         1           C   tau(   1) = (   0.4304248   0.5349588   0.4241547  )
         2           C   tau(   2) = (   0.4332159   0.2686643   0.4250854  )
         3           C   tau(   3) = (   0.3192466   0.3352629   0.4250835  )
         4           C   tau(   4) = (   0.3173984   0.4671365   0.4251950  )
         5           C   tau(   5) = (   0.5441136   0.4675815   0.4254529  )
         6           C   tau(   6) = (   0.5470606   0.3354462   0.4252196  )
         7           H   tau(   7) = (   0.4367478   0.1663828   0.4247726  )
         8           H   tau(   8) = (   0.3431658   0.6917635   0.4273795  )
         9           H   tau(   9) = (   0.2338168   0.2800225   0.4250155  )
        10           H   tau(  10) = (   0.2252828   0.5120959   0.4248737  )
        11           H   tau(  11) = (   0.6325896   0.5189821   0.4250145  )
        12           H   tau(  12) = (   0.6356283   0.2854630   0.4249200  )
        13           O   tau(  13) = (   0.4287505   0.6636728   0.4252309  )

     number of k points=     1
                       cart. coord. in units 2pi/alat
        k(    1) = (   0.0000000   0.0000000   0.0000000), wk =   2.0000000

     Dense  grid:   220708 G-vectors     FFT dimensions: (  96,  96,  96)

     Estimated max dynamical RAM per process >      63.09 MB

     Estimated total dynamical RAM >     252.38 MB

     Check: negative core charge=   -0.000007

     Initial potential from superposition of free atoms

     starting charge   35.99967, renormalised to   36.00000

     negative rho (up, down):  5.185E-04 0.000E+00
     Starting wfcs are   34 randomized atomic wfcs

     total cpu time spent up to now is        1.2 secs

     Self-consistent Calculation

     iteration #  1     ecut=    55.00 Ry     beta= 0.50
     Davidson diagonalization with overlap
     ethr =  1.00E-02,  avg # of iterations =  2.0

     negative rho (up, down):  2.139E-04 0.000E+00

     total cpu time spent up to now is        2.5 secs

     total energy              =    -112.05939786 Ry
     estimated scf accuracy    <       1.48438503 Ry

     iteration #  2     ecut=    55.00 Ry     beta= 0.50
     Davidson diagonalization with overlap
     ethr =  4.12E-03,  avg # of iterations =  2.0

     negative rho (up, down):  8.282E-05 0.000E+00

     total cpu time spent up to now is        3.6 secs

     total energy              =    -112.28132262 Ry
     estimated scf accuracy    <       0.10825786 Ry

     iteration #  3     ecut=    55.00 Ry     beta= 0.50
     Davidson diagonalization with overlap
     ethr =  3.01E-04,  avg # of iterations =  4.0

     negative rho (up, down):  1.391E-05 0.000E+00

     total cpu time spent up to now is        4.7 secs

     total energy              =    -112.28126284 Ry
     estimated scf accuracy    <       0.02609815 Ry

     iteration #  4     ecut=    55.00 Ry     beta= 0.50
     Davidson diagonalization with overlap
     ethr =  7.25E-05,  avg # of iterations =  5.0

     negative rho (up, down):  2.929E-06 0.000E+00

     total cpu time spent up to now is        5.9 secs

     total energy              =    -112.28615498 Ry
     estimated scf accuracy    <       0.01012936 Ry

     iteration #  5     ecut=    55.00 Ry     beta= 0.50
     Davidson diagonalization with overlap
     ethr =  2.81E-05,  avg # of iterations =  5.0

     negative rho (up, down):  1.689E-07 0.000E+00

     total cpu time spent up to now is        7.0 secs

     total energy              =    -112.28657357 Ry
     estimated scf accuracy    <       0.00113103 Ry

     iteration #  6     ecut=    55.00 Ry     beta= 0.50
     Davidson diagonalization with overlap
     ethr =  3.14E-06,  avg # of iterations =  5.0

     total cpu time spent up to now is        8.4 secs

     total energy              =    -112.28700838 Ry
     estimated scf accuracy    <       0.00044310 Ry

     iteration #  7     ecut=    55.00 Ry     beta= 0.50
     Davidson diagonalization with overlap
     ethr =  1.23E-06,  avg # of iterations =  5.0

     total cpu time spent up to now is        9.5 secs

     total energy              =    -112.28708557 Ry
     estimated scf accuracy    <       0.00000804 Ry

     iteration #  8     ecut=    55.00 Ry     beta= 0.50
     Davidson diagonalization with overlap
     ethr =  2.23E-08,  avg # of iterations =  5.0

     total cpu time spent up to now is       11.1 secs

     total energy              =    -112.28708891 Ry
     estimated scf accuracy    <       0.00001174 Ry

     iteration #  9     ecut=    55.00 Ry     beta= 0.50
     Davidson diagonalization with overlap
     ethr =  2.23E-08,  avg # of iterations =  4.0

     total cpu time spent up to now is       12.3 secs

     total energy              =    -112.28709151 Ry
     estimated scf accuracy    <       0.00000026 Ry

     iteration # 10     ecut=    55.00 Ry     beta= 0.50
     Davidson diagonalization with overlap
     ethr =  7.32E-10,  avg # of iterations =  4.0

     total cpu time spent up to now is       13.6 secs

     total energy              =    -112.28709159 Ry
     estimated scf accuracy    <       0.00000002 Ry

     iteration # 11     ecut=    55.00 Ry     beta= 0.50
     Davidson diagonalization with overlap
     ethr =  4.49E-11,  avg # of iterations =  6.0

     total cpu time spent up to now is       15.1 secs

     total energy              =    -112.28709160 Ry
     estimated scf accuracy    <       0.00000002 Ry

     iteration # 12     ecut=    55.00 Ry     beta= 0.50
     Davidson diagonalization with overlap
     ethr =  4.49E-11,  avg # of iterations =  4.0

     total cpu time spent up to now is       16.3 secs

     total energy              =    -112.28709160 Ry
     estimated scf accuracy    <          2.3E-09 Ry

     iteration # 13     ecut=    55.00 Ry     beta= 0.50
     Davidson diagonalization with overlap
     ethr =  6.25E-12,  avg # of iterations =  5.0

     total cpu time spent up to now is       17.5 secs

     total energy              =    -112.28709160 Ry
     estimated scf accuracy    <          1.5E-09 Ry

     iteration # 14     ecut=    55.00 Ry     beta= 0.50
     Davidson diagonalization with overlap
     ethr =  4.14E-12,  avg # of iterations =  5.0

     total cpu time spent up to now is       18.6 secs

     total energy              =    -112.28709160 Ry
     estimated scf accuracy    <          1.5E-10 Ry

     iteration # 15     ecut=    55.00 Ry     beta= 0.50
     Davidson diagonalization with overlap
     ethr =  4.24E-13,  avg # of iterations =  5.0

     total cpu time spent up to now is       19.8 secs

     total energy              =    -112.28709160 Ry
     estimated scf accuracy    <          2.1E-11 Ry

     iteration # 16     ecut=    55.00 Ry     beta= 0.50
     Davidson diagonalization with overlap
     ethr =  1.00E-13,  avg # of iterations =  5.0

     total cpu time spent up to now is       21.0 secs

     total energy              =    -112.28709160 Ry
     estimated scf accuracy    <          3.4E-12 Ry

     iteration # 17     ecut=    55.00 Ry     beta= 0.50
     Davidson diagonalization with overlap
     ethr =  1.00E-13,  avg # of iterations =  1.0

     total cpu time spent up to now is       21.9 secs

     total energy              =    -112.28709160 Ry
     estimated scf accuracy    <          1.3E-12 Ry

     iteration # 18     ecut=    55.00 Ry     beta= 0.50
     Davidson diagonalization with overlap
     ethr =  1.00E-13,  avg # of iterations =  2.0

     total cpu time spent up to now is       22.8 secs

     End of self-consistent calculation

          k = 0.0000 0.0000 0.0000 ( 27590 PWs)   bands (ev):

   -26.2834 -20.5720 -17.9370 -17.7426 -14.9390 -14.3134 -13.0390 -11.6516
   -10.9265 -10.1781  -9.6434  -9.4915  -8.7771  -8.1142  -7.6460  -7.4867
    -5.7264  -4.9546

     highest occupied level (ev):    -4.9546

!    total energy              =    -112.28709160 Ry
     estimated scf accuracy    <          3.9E-13 Ry

     The total energy is the sum of the following terms:
     one-electron contribution =    -365.53790011 Ry
     hartree contribution      =     188.03862449 Ry
     xc contribution           =     -38.20689612 Ry
     ewald contribution        =     103.41908014 Ry

     convergence has been achieved in  18 iterations

     Forces acting on atoms (cartesian axes, Ry/au):

     atom    1 type  1   force =    -0.01851357   -0.01905854    0.00719196
     atom    2 type  1   force =     0.01216493    0.00613617   -0.00030981
     atom    3 type  1   force =     0.02157586   -0.00962732    0.00037722
     atom    4 type  1   force =    -0.01288531   -0.02908913   -0.00299954
     atom    5 type  1   force =     0.02099333    0.00735569   -0.00397290
     atom    6 type  1   force =    -0.03306285    0.02080660   -0.00011512
     atom    7 type  2   force =    -0.00819895   -0.00811672    0.00010992
     atom    8 type  2   force =    -0.02271657    0.00538742    0.00000290
     atom    9 type  2   force =    -0.02163670    0.00084040    0.00021096
     atom   10 type  2   force =    -0.00385043    0.01498544    0.00030488
     atom   11 type  2   force =     0.00668247    0.00913943    0.00070285
     atom   12 type  2   force =     0.01636316   -0.00425188    0.00049302
     atom   13 type  3   force =     0.04308462    0.00549245   -0.00199635

     Total force =     0.090837     Total SCF correction =     0.000001

     Writing output data file ./Phenol.save/

     init_run     :      1.06s CPU      1.14s WALL (       1 calls)
     electrons    :     21.23s CPU     21.61s WALL (       1 calls)
     forces       :      0.73s CPU      0.73s WALL (       1 calls)

     Called by init_run:
     wfcinit      :      0.47s CPU      0.48s WALL (       1 calls)
     potinit      :      0.35s CPU      0.40s WALL (       1 calls)
     hinit0       :      0.18s CPU      0.19s WALL (       1 calls)

     Called by electrons:
     c_bands      :     13.67s CPU     13.76s WALL (      18 calls)
     sum_band     :      2.50s CPU      2.52s WALL (      18 calls)
     v_of_rho     :      4.05s CPU      4.33s WALL (      19 calls)
     mix_rho      :      1.06s CPU      1.08s WALL (      18 calls)

     Called by c_bands:
     init_us_2    :      0.21s CPU      0.21s WALL (      37 calls)
     regterg      :     13.39s CPU     13.48s WALL (      18 calls)

     Called by *egterg:
     rdiaghg      :      0.08s CPU      0.08s WALL (      92 calls)
     h_psi        :     11.31s CPU     11.38s WALL (      93 calls)
     g_psi        :      0.03s CPU      0.03s WALL (      74 calls)

     Called by h_psi:
     h_psi:calbec :      1.75s CPU      1.75s WALL (      93 calls)
     vloc_psi     :      8.11s CPU      8.18s WALL (      93 calls)
     add_vuspsi   :      1.38s CPU      1.38s WALL (      93 calls)

     General routines
     calbec       :      1.88s CPU      1.88s WALL (      97 calls)
     fft          :      2.55s CPU      2.65s WALL (     160 calls)
     ffts         :      0.28s CPU      0.29s WALL (      18 calls)
     fftw         :      7.53s CPU      7.58s WALL (    1146 calls)

     Parallel routines

     PWSCF        :     23.12s CPU     23.62s WALL


   This run was terminated on:   1:26:16  24May2021            

=------------------------------------------------------------------------------=
   JOB DONE.
=------------------------------------------------------------------------------=
