
     Program PWSCF v.6.7GPU starts on 24May2021 at  1:24:36 

     This program is part of the open-source Quantum ESPRESSO suite
     for quantum simulation of materials; please cite
         "P. Giannozzi et al., J. Phys.:Condens. Matter 21 395502 (2009);
         "P. Giannozzi et al., J. Phys.:Condens. Matter 29 465901 (2017);
         "P. Giannozzi et al., J. Chem. Phys. 152 154105 (2020);
          URL http://www.quantum-espresso.org", 
     in publications or presentations arising from this work. More details at
     http://www.quantum-espresso.org/quote

     Parallel version (MPI), running on     4 processors

     MPI processes distributed on     1 nodes
     R & G space division:  proc/nbgrp/npool/nimage =       4
     Waiting for input...
     Reading input from standard input
     Message from routine read_cards :
     DEPRECATED: no units specified in CELL_PARAMETERS card

     Current dimensions of program PWSCF are:
     Max number of different atomic species (ntypx) = 10
     Max number of k-points (npk) =  40000
     Max angular momentum in pseudopotentials (lmaxx) =  3

     gamma-point specific algorithms are used

     Subspace diagonalization in iterative solution of the eigenvalue problem:
     one sub-group per band group will be used
     scalapack distributed-memory algorithm (size of sub-group:  2*  2 procs)


     Parallelization info
     --------------------
     sticks:   dense  smooth     PW     G-vecs:    dense   smooth      PW
     Min         951     951    236                44375    44375    5524
     Max         954     954    238                44382    44382    5534
     Sum        3809    3809    949               177509   177509   22119

     Using Slab Decomposition



     bravais-lattice index     =            0
     lattice parameter (alat)  =      20.0000  a.u.
     unit-cell volume          =    8000.0000 (a.u.)^3
     number of atoms/cell      =           13
     number of atomic types    =            3
     number of electrons       =        36.00
     number of Kohn-Sham states=           18
     kinetic-energy cutoff     =      30.0000  Ry
     charge density cutoff     =     120.0000  Ry
     scf convergence threshold =      1.0E-12
     mixing beta               =       0.5000
     number of iterations used =            8  plain     mixing
     Exchange-correlation= PBE
                           (   1   4   3   4   0   0   0)

     celldm(1)=  20.000000  celldm(2)=   0.000000  celldm(3)=   0.000000
     celldm(4)=   0.000000  celldm(5)=   0.000000  celldm(6)=   0.000000

     crystal axes: (cart. coord. in units of alat)
               a(1) = (   1.000000   0.000000   0.000000 )  
               a(2) = (   0.000000   1.000000   0.000000 )  
               a(3) = (   0.000000   0.000000   1.000000 )  

     reciprocal axes: (cart. coord. in units 2 pi/alat)
               b(1) = (  1.000000  0.000000  0.000000 )  
               b(2) = (  0.000000  1.000000  0.000000 )  
               b(3) = (  0.000000  0.000000  1.000000 )  


     PseudoPot. # 1 for C  read from file:
     /home/ciga/builds/pseudo_potentials/C.upf
     MD5 check sum: d80ec9912146af6c4c1760317d1f95e9
     Pseudo is Norm-conserving + core correction, Zval =  4.0
     Generated using ONCVPSP code by D. R. Hamann
     Using radial grid of 1248 points,  4 beta functions with: 
                l(1) =   0
                l(2) =   0
                l(3) =   1
                l(4) =   1

     PseudoPot. # 2 for H  read from file:
     /home/ciga/builds/pseudo_potentials/H.upf
     MD5 check sum: 418cee52d0c413ae40802e6cc37ab9e3
     Pseudo is Norm-conserving, Zval =  1.0
     Generated using ONCVPSP code by D. R. Hamann
     Using radial grid of 1166 points,  3 beta functions with: 
                l(1) =   0
                l(2) =   0
                l(3) =   1

     PseudoPot. # 3 for O  read from file:
     /home/ciga/builds/pseudo_potentials/O.upf
     MD5 check sum: e357869f07dbe8d608261c380baea405
     Pseudo is Norm-conserving + core correction, Zval =  6.0
     Generated using ONCVPSP code by D. R. Hamann
     Using radial grid of  936 points,  5 beta functions with: 
                l(1) =   0
                l(2) =   0
                l(3) =   1
                l(4) =   1
                l(5) =   2

     atomic species   valence    mass     pseudopotential
        C              4.00    12.01070     C ( 1.00)
        H              1.00     1.00794     H ( 1.00)
        O              6.00    15.99940     O ( 1.00)

     No symmetry found



   Cartesian axes

     site n.     atom                  positions (alat units)
         1           C   tau(   1) = (   0.4304248   0.5349588   0.4241547  )
         2           C   tau(   2) = (   0.4332159   0.2686643   0.4250854  )
         3           C   tau(   3) = (   0.3192466   0.3352629   0.4250835  )
         4           C   tau(   4) = (   0.3173984   0.4671365   0.4251950  )
         5           C   tau(   5) = (   0.5441136   0.4675815   0.4254529  )
         6           C   tau(   6) = (   0.5470606   0.3354462   0.4252196  )
         7           H   tau(   7) = (   0.4367478   0.1663828   0.4247726  )
         8           H   tau(   8) = (   0.3431658   0.6917635   0.4273795  )
         9           H   tau(   9) = (   0.2338168   0.2800225   0.4250155  )
        10           H   tau(  10) = (   0.2252828   0.5120959   0.4248737  )
        11           H   tau(  11) = (   0.6325896   0.5189821   0.4250145  )
        12           H   tau(  12) = (   0.6356283   0.2854630   0.4249200  )
        13           O   tau(  13) = (   0.4287505   0.6636728   0.4252309  )

     number of k points=     1
                       cart. coord. in units 2pi/alat
        k(    1) = (   0.0000000   0.0000000   0.0000000), wk =   2.0000000

     Dense  grid:    88755 G-vectors     FFT dimensions: (  72,  72,  72)

     Estimated max dynamical RAM per process >      26.56 MB

     Estimated total dynamical RAM >     106.23 MB

     Check: negative core charge=   -0.000113

     Initial potential from superposition of free atoms

     starting charge   35.99967, renormalised to   36.00000

     negative rho (up, down):  5.883E-02 0.000E+00
     Starting wfcs are   34 randomized atomic wfcs

     total cpu time spent up to now is        0.6 secs

     Self-consistent Calculation

     iteration #  1     ecut=    30.00 Ry     beta= 0.50
     Davidson diagonalization with overlap
     ethr =  1.00E-02,  avg # of iterations =  2.0

     negative rho (up, down):  2.828E-02 0.000E+00

     total cpu time spent up to now is        1.0 secs

     total energy              =    -110.88637525 Ry
     estimated scf accuracy    <       1.18989534 Ry

     iteration #  2     ecut=    30.00 Ry     beta= 0.50
     Davidson diagonalization with overlap
     ethr =  3.31E-03,  avg # of iterations =  2.0

     negative rho (up, down):  1.186E-02 0.000E+00

     total cpu time spent up to now is        1.4 secs

     total energy              =    -111.04378812 Ry
     estimated scf accuracy    <       0.11300775 Ry

     iteration #  3     ecut=    30.00 Ry     beta= 0.50
     Davidson diagonalization with overlap
     ethr =  3.14E-04,  avg # of iterations =  4.0

     negative rho (up, down):  1.336E-03 0.000E+00

     total cpu time spent up to now is        1.7 secs

     total energy              =    -111.04298232 Ry
     estimated scf accuracy    <       0.02414336 Ry

     iteration #  4     ecut=    30.00 Ry     beta= 0.50
     Davidson diagonalization with overlap
     ethr =  6.71E-05,  avg # of iterations =  5.0

     negative rho (up, down):  8.516E-04 0.000E+00

     total cpu time spent up to now is        2.2 secs

     total energy              =    -111.04780210 Ry
     estimated scf accuracy    <       0.01420391 Ry

     iteration #  5     ecut=    30.00 Ry     beta= 0.50
     Davidson diagonalization with overlap
     ethr =  3.95E-05,  avg # of iterations =  3.0

     negative rho (up, down):  1.356E-04 0.000E+00

     total cpu time spent up to now is        2.6 secs

     total energy              =    -111.04729774 Ry
     estimated scf accuracy    <       0.00264380 Ry

     iteration #  6     ecut=    30.00 Ry     beta= 0.50
     Davidson diagonalization with overlap
     ethr =  7.34E-06,  avg # of iterations =  6.0

     negative rho (up, down):  2.608E-05 0.000E+00

     total cpu time spent up to now is        3.0 secs

     total energy              =    -111.04847680 Ry
     estimated scf accuracy    <       0.00177042 Ry

     iteration #  7     ecut=    30.00 Ry     beta= 0.50
     Davidson diagonalization with overlap
     ethr =  4.92E-06,  avg # of iterations =  5.0

     negative rho (up, down):  2.826E-07 0.000E+00

     total cpu time spent up to now is        3.4 secs

     total energy              =    -111.04868142 Ry
     estimated scf accuracy    <       0.00006123 Ry

     iteration #  8     ecut=    30.00 Ry     beta= 0.50
     Davidson diagonalization with overlap
     ethr =  1.70E-07,  avg # of iterations =  5.0

     negative rho (up, down):  6.320E-08 0.000E+00

     total cpu time spent up to now is        3.9 secs

     total energy              =    -111.04871757 Ry
     estimated scf accuracy    <       0.00006508 Ry

     iteration #  9     ecut=    30.00 Ry     beta= 0.50
     Davidson diagonalization with overlap
     ethr =  1.70E-07,  avg # of iterations =  3.0

     total cpu time spent up to now is        4.3 secs

     total energy              =    -111.04871873 Ry
     estimated scf accuracy    <       0.00000906 Ry

     iteration # 10     ecut=    30.00 Ry     beta= 0.50
     Davidson diagonalization with overlap
     ethr =  2.52E-08,  avg # of iterations =  5.0

     total cpu time spent up to now is        4.7 secs

     total energy              =    -111.04872276 Ry
     estimated scf accuracy    <       0.00000234 Ry

     iteration # 11     ecut=    30.00 Ry     beta= 0.50
     Davidson diagonalization with overlap
     ethr =  6.51E-09,  avg # of iterations =  5.0

     total cpu time spent up to now is        5.1 secs

     total energy              =    -111.04872292 Ry
     estimated scf accuracy    <       0.00000013 Ry

     iteration # 12     ecut=    30.00 Ry     beta= 0.50
     Davidson diagonalization with overlap
     ethr =  3.53E-10,  avg # of iterations =  6.0

     total cpu time spent up to now is        5.6 secs

     total energy              =    -111.04872294 Ry
     estimated scf accuracy    <       0.00000024 Ry

     iteration # 13     ecut=    30.00 Ry     beta= 0.50
     Davidson diagonalization with overlap
     ethr =  3.53E-10,  avg # of iterations =  5.0

     total cpu time spent up to now is        6.1 secs

     total energy              =    -111.04872299 Ry
     estimated scf accuracy    <          1.3E-09 Ry

     iteration # 14     ecut=    30.00 Ry     beta= 0.50
     Davidson diagonalization with overlap
     ethr =  3.53E-12,  avg # of iterations =  7.0

     total cpu time spent up to now is        6.7 secs

     total energy              =    -111.04872298 Ry
     estimated scf accuracy    <          7.8E-09 Ry

     iteration # 15     ecut=    30.00 Ry     beta= 0.50
     Davidson diagonalization with overlap
     ethr =  3.53E-12,  avg # of iterations =  5.0

     total cpu time spent up to now is        7.1 secs

     total energy              =    -111.04872298 Ry
     estimated scf accuracy    <          9.4E-10 Ry

     iteration # 16     ecut=    30.00 Ry     beta= 0.50
     Davidson diagonalization with overlap
     ethr =  2.60E-12,  avg # of iterations =  5.0

     total cpu time spent up to now is        7.6 secs

     total energy              =    -111.04872298 Ry
     estimated scf accuracy    <          1.4E-10 Ry

     iteration # 17     ecut=    30.00 Ry     beta= 0.50
     Davidson diagonalization with overlap
     ethr =  3.84E-13,  avg # of iterations =  2.0

     total cpu time spent up to now is        7.9 secs

     total energy              =    -111.04872298 Ry
     estimated scf accuracy    <          1.9E-11 Ry

     iteration # 18     ecut=    30.00 Ry     beta= 0.50
     Davidson diagonalization with overlap
     ethr =  1.00E-13,  avg # of iterations =  5.0

     total cpu time spent up to now is        8.4 secs

     total energy              =    -111.04872298 Ry
     estimated scf accuracy    <          1.3E-11 Ry

     iteration # 19     ecut=    30.00 Ry     beta= 0.50
     Davidson diagonalization with overlap
     ethr =  1.00E-13,  avg # of iterations =  2.0

     total cpu time spent up to now is        8.7 secs

     total energy              =    -111.04872298 Ry
     estimated scf accuracy    <          2.1E-12 Ry

     iteration # 20     ecut=    30.00 Ry     beta= 0.50
     Davidson diagonalization with overlap
     ethr =  1.00E-13,  avg # of iterations =  2.0

     total cpu time spent up to now is        9.1 secs

     End of self-consistent calculation

          k = 0.0000 0.0000 0.0000 ( 11060 PWs)   bands (ev):

   -27.7686 -20.9097 -18.2167 -18.0972 -15.1916 -14.5651 -13.1951 -11.8040
   -11.0719 -10.2538  -9.7141  -9.6303  -8.9663  -8.1270  -7.7162  -7.5167
    -5.7662  -4.9569

     highest occupied level (ev):    -4.9569

!    total energy              =    -111.04872298 Ry
     estimated scf accuracy    <          2.6E-14 Ry

     The total energy is the sum of the following terms:
     one-electron contribution =    -362.77757618 Ry
     hartree contribution      =     186.14481864 Ry
     xc contribution           =     -37.83504599 Ry
     ewald contribution        =     103.41908054 Ry

     convergence has been achieved in  20 iterations

     Forces acting on atoms (cartesian axes, Ry/au):

     atom    1 type  1   force =    -0.02676399   -0.01834931    0.00775975
     atom    2 type  1   force =     0.01297499    0.02515325    0.00002921
     atom    3 type  1   force =     0.03829366   -0.00029176    0.00068780
     atom    4 type  1   force =     0.00631922   -0.03651458   -0.00255457
     atom    5 type  1   force =     0.00558344    0.00170383   -0.00349949
     atom    6 type  1   force =    -0.05041564    0.02924312    0.00017827
     atom    7 type  2   force =    -0.00666276   -0.03040338    0.00037731
     atom    8 type  2   force =    -0.10756954    0.02808355    0.00240529
     atom    9 type  2   force =    -0.04045040   -0.01114856    0.00052325
     atom   10 type  2   force =    -0.02261313    0.02598027    0.00055728
     atom   11 type  2   force =     0.02750095    0.02126851    0.00092164
     atom   12 type  2   force =     0.03762221   -0.01476250    0.00075694
     atom   13 type  3   force =     0.12618102   -0.01996242   -0.00814271

     Total force =     0.209084     Total SCF correction =     0.000000

     Writing output data file ./Phenol.save/

     init_run     :      0.43s CPU      0.46s WALL (       1 calls)
     electrons    :      8.25s CPU      8.51s WALL (       1 calls)
     forces       :      0.30s CPU      0.30s WALL (       1 calls)

     Called by init_run:
     wfcinit      :      0.16s CPU      0.17s WALL (       1 calls)
     potinit      :      0.16s CPU      0.18s WALL (       1 calls)
     hinit0       :      0.09s CPU      0.09s WALL (       1 calls)

     Called by electrons:
     c_bands      :      5.33s CPU      5.39s WALL (      20 calls)
     sum_band     :      0.91s CPU      0.93s WALL (      20 calls)
     v_of_rho     :      1.69s CPU      1.87s WALL (      21 calls)
     mix_rho      :      0.33s CPU      0.34s WALL (      20 calls)

     Called by c_bands:
     init_us_2    :      0.09s CPU      0.10s WALL (      41 calls)
     regterg      :      5.21s CPU      5.27s WALL (      20 calls)

     Called by *egterg:
     rdiaghg      :      0.08s CPU      0.08s WALL (     104 calls)
     h_psi        :      4.34s CPU      4.40s WALL (     105 calls)
     g_psi        :      0.01s CPU      0.01s WALL (      84 calls)

     Called by h_psi:
     h_psi:calbec :      0.78s CPU      0.78s WALL (     105 calls)
     vloc_psi     :      2.93s CPU      2.98s WALL (     105 calls)
     add_vuspsi   :      0.61s CPU      0.61s WALL (     105 calls)

     General routines
     calbec       :      0.83s CPU      0.84s WALL (     109 calls)
     fft          :      0.84s CPU      0.89s WALL (     176 calls)
     ffts         :      0.10s CPU      0.11s WALL (      20 calls)
     fftw         :      2.66s CPU      2.71s WALL (    1260 calls)

     Parallel routines

     PWSCF        :      9.08s CPU      9.39s WALL


   This run was terminated on:   1:24:45  24May2021            

=------------------------------------------------------------------------------=
   JOB DONE.
=------------------------------------------------------------------------------=
