
     Program PWSCF v.6.7GPU starts on 24May2021 at  1:25:11 

     This program is part of the open-source Quantum ESPRESSO suite
     for quantum simulation of materials; please cite
         "P. Giannozzi et al., J. Phys.:Condens. Matter 21 395502 (2009);
         "P. Giannozzi et al., J. Phys.:Condens. Matter 29 465901 (2017);
         "P. Giannozzi et al., J. Chem. Phys. 152 154105 (2020);
          URL http://www.quantum-espresso.org", 
     in publications or presentations arising from this work. More details at
     http://www.quantum-espresso.org/quote

     Parallel version (MPI), running on     4 processors

     MPI processes distributed on     1 nodes
     R & G space division:  proc/nbgrp/npool/nimage =       4
     Waiting for input...
     Reading input from standard input
     Message from routine read_cards :
     DEPRECATED: no units specified in CELL_PARAMETERS card

     Current dimensions of program PWSCF are:
     Max number of different atomic species (ntypx) = 10
     Max number of k-points (npk) =  40000
     Max angular momentum in pseudopotentials (lmaxx) =  3

     gamma-point specific algorithms are used

     Subspace diagonalization in iterative solution of the eigenvalue problem:
     one sub-group per band group will be used
     scalapack distributed-memory algorithm (size of sub-group:  2*  2 procs)


     Parallelization info
     --------------------
     sticks:   dense  smooth     PW     G-vecs:    dense   smooth      PW
     Min        1429    1429    358                81505    81505   10162
     Max        1432    1432    359                81512    81512   10165
     Sum        5721    5721   1433               326029   326029   40651

     Using Slab Decomposition



     bravais-lattice index     =            0
     lattice parameter (alat)  =      20.0000  a.u.
     unit-cell volume          =    8000.0000 (a.u.)^3
     number of atoms/cell      =           13
     number of atomic types    =            3
     number of electrons       =        36.00
     number of Kohn-Sham states=           18
     kinetic-energy cutoff     =      45.0000  Ry
     charge density cutoff     =     180.0000  Ry
     scf convergence threshold =      1.0E-12
     mixing beta               =       0.5000
     number of iterations used =            8  plain     mixing
     Exchange-correlation= PBE
                           (   1   4   3   4   0   0   0)

     celldm(1)=  20.000000  celldm(2)=   0.000000  celldm(3)=   0.000000
     celldm(4)=   0.000000  celldm(5)=   0.000000  celldm(6)=   0.000000

     crystal axes: (cart. coord. in units of alat)
               a(1) = (   1.000000   0.000000   0.000000 )  
               a(2) = (   0.000000   1.000000   0.000000 )  
               a(3) = (   0.000000   0.000000   1.000000 )  

     reciprocal axes: (cart. coord. in units 2 pi/alat)
               b(1) = (  1.000000  0.000000  0.000000 )  
               b(2) = (  0.000000  1.000000  0.000000 )  
               b(3) = (  0.000000  0.000000  1.000000 )  


     PseudoPot. # 1 for C  read from file:
     /home/ciga/builds/pseudo_potentials/C.upf
     MD5 check sum: d80ec9912146af6c4c1760317d1f95e9
     Pseudo is Norm-conserving + core correction, Zval =  4.0
     Generated using ONCVPSP code by D. R. Hamann
     Using radial grid of 1248 points,  4 beta functions with: 
                l(1) =   0
                l(2) =   0
                l(3) =   1
                l(4) =   1

     PseudoPot. # 2 for H  read from file:
     /home/ciga/builds/pseudo_potentials/H.upf
     MD5 check sum: 418cee52d0c413ae40802e6cc37ab9e3
     Pseudo is Norm-conserving, Zval =  1.0
     Generated using ONCVPSP code by D. R. Hamann
     Using radial grid of 1166 points,  3 beta functions with: 
                l(1) =   0
                l(2) =   0
                l(3) =   1

     PseudoPot. # 3 for O  read from file:
     /home/ciga/builds/pseudo_potentials/O.upf
     MD5 check sum: e357869f07dbe8d608261c380baea405
     Pseudo is Norm-conserving + core correction, Zval =  6.0
     Generated using ONCVPSP code by D. R. Hamann
     Using radial grid of  936 points,  5 beta functions with: 
                l(1) =   0
                l(2) =   0
                l(3) =   1
                l(4) =   1
                l(5) =   2

     atomic species   valence    mass     pseudopotential
        C              4.00    12.01070     C ( 1.00)
        H              1.00     1.00794     H ( 1.00)
        O              6.00    15.99940     O ( 1.00)

     No symmetry found



   Cartesian axes

     site n.     atom                  positions (alat units)
         1           C   tau(   1) = (   0.4304248   0.5349588   0.4241547  )
         2           C   tau(   2) = (   0.4332159   0.2686643   0.4250854  )
         3           C   tau(   3) = (   0.3192466   0.3352629   0.4250835  )
         4           C   tau(   4) = (   0.3173984   0.4671365   0.4251950  )
         5           C   tau(   5) = (   0.5441136   0.4675815   0.4254529  )
         6           C   tau(   6) = (   0.5470606   0.3354462   0.4252196  )
         7           H   tau(   7) = (   0.4367478   0.1663828   0.4247726  )
         8           H   tau(   8) = (   0.3431658   0.6917635   0.4273795  )
         9           H   tau(   9) = (   0.2338168   0.2800225   0.4250155  )
        10           H   tau(  10) = (   0.2252828   0.5120959   0.4248737  )
        11           H   tau(  11) = (   0.6325896   0.5189821   0.4250145  )
        12           H   tau(  12) = (   0.6356283   0.2854630   0.4249200  )
        13           O   tau(  13) = (   0.4287505   0.6636728   0.4252309  )

     number of k points=     1
                       cart. coord. in units 2pi/alat
        k(    1) = (   0.0000000   0.0000000   0.0000000), wk =   2.0000000

     Dense  grid:   163015 G-vectors     FFT dimensions: (  90,  90,  90)

     Estimated max dynamical RAM per process >      48.63 MB

     Estimated total dynamical RAM >     194.52 MB

     Check: negative core charge=   -0.000023

     Initial potential from superposition of free atoms

     starting charge   35.99967, renormalised to   36.00000

     negative rho (up, down):  3.412E-03 0.000E+00
     Starting wfcs are   34 randomized atomic wfcs

     total cpu time spent up to now is        1.0 secs

     Self-consistent Calculation

     iteration #  1     ecut=    45.00 Ry     beta= 0.50
     Davidson diagonalization with overlap
     ethr =  1.00E-02,  avg # of iterations =  2.0

     negative rho (up, down):  1.592E-03 0.000E+00

     total cpu time spent up to now is        2.1 secs

     total energy              =    -111.88656977 Ry
     estimated scf accuracy    <       1.41871675 Ry

     iteration #  2     ecut=    45.00 Ry     beta= 0.50
     Davidson diagonalization with overlap
     ethr =  3.94E-03,  avg # of iterations =  2.0

     negative rho (up, down):  6.565E-04 0.000E+00

     total cpu time spent up to now is        3.1 secs

     total energy              =    -112.09233960 Ry
     estimated scf accuracy    <       0.10698536 Ry

     iteration #  3     ecut=    45.00 Ry     beta= 0.50
     Davidson diagonalization with overlap
     ethr =  2.97E-04,  avg # of iterations =  4.0

     negative rho (up, down):  1.101E-04 0.000E+00

     total cpu time spent up to now is        4.0 secs

     total energy              =    -112.09176194 Ry
     estimated scf accuracy    <       0.02548942 Ry

     iteration #  4     ecut=    45.00 Ry     beta= 0.50
     Davidson diagonalization with overlap
     ethr =  7.08E-05,  avg # of iterations =  5.0

     negative rho (up, down):  2.921E-05 0.000E+00

     total cpu time spent up to now is        5.0 secs

     total energy              =    -112.09662424 Ry
     estimated scf accuracy    <       0.01104285 Ry

     iteration #  5     ecut=    45.00 Ry     beta= 0.50
     Davidson diagonalization with overlap
     ethr =  3.07E-05,  avg # of iterations =  5.0

     negative rho (up, down):  2.641E-06 0.000E+00

     total cpu time spent up to now is        5.9 secs

     total energy              =    -112.09696913 Ry
     estimated scf accuracy    <       0.00129397 Ry

     iteration #  6     ecut=    45.00 Ry     beta= 0.50
     Davidson diagonalization with overlap
     ethr =  3.59E-06,  avg # of iterations =  5.0

     negative rho (up, down):  1.767E-07 0.000E+00

     total cpu time spent up to now is        7.1 secs

     total energy              =    -112.09746886 Ry
     estimated scf accuracy    <       0.00048003 Ry

     iteration #  7     ecut=    45.00 Ry     beta= 0.50
     Davidson diagonalization with overlap
     ethr =  1.33E-06,  avg # of iterations =  5.0

     total cpu time spent up to now is        8.0 secs

     total energy              =    -112.09754730 Ry
     estimated scf accuracy    <       0.00000969 Ry

     iteration #  8     ecut=    45.00 Ry     beta= 0.50
     Davidson diagonalization with overlap
     ethr =  2.69E-08,  avg # of iterations =  5.0

     total cpu time spent up to now is        9.4 secs

     total energy              =    -112.09755208 Ry
     estimated scf accuracy    <       0.00001172 Ry

     iteration #  9     ecut=    45.00 Ry     beta= 0.50
     Davidson diagonalization with overlap
     ethr =  2.69E-08,  avg # of iterations =  5.0

     total cpu time spent up to now is       10.4 secs

     total energy              =    -112.09755441 Ry
     estimated scf accuracy    <       0.00000025 Ry

     iteration # 10     ecut=    45.00 Ry     beta= 0.50
     Davidson diagonalization with overlap
     ethr =  6.94E-10,  avg # of iterations =  5.0

     total cpu time spent up to now is       11.6 secs

     total energy              =    -112.09755447 Ry
     estimated scf accuracy    <       0.00000005 Ry

     iteration # 11     ecut=    45.00 Ry     beta= 0.50
     Davidson diagonalization with overlap
     ethr =  1.44E-10,  avg # of iterations =  5.0

     total cpu time spent up to now is       12.7 secs

     total energy              =    -112.09755450 Ry
     estimated scf accuracy    <       0.00000001 Ry

     iteration # 12     ecut=    45.00 Ry     beta= 0.50
     Davidson diagonalization with overlap
     ethr =  3.10E-11,  avg # of iterations =  2.0

     total cpu time spent up to now is       13.7 secs

     total energy              =    -112.09755450 Ry
     estimated scf accuracy    <          2.9E-09 Ry

     iteration # 13     ecut=    45.00 Ry     beta= 0.50
     Davidson diagonalization with overlap
     ethr =  7.95E-12,  avg # of iterations =  4.0

     total cpu time spent up to now is       14.8 secs

     total energy              =    -112.09755450 Ry
     estimated scf accuracy    <          3.7E-10 Ry

     iteration # 14     ecut=    45.00 Ry     beta= 0.50
     Davidson diagonalization with overlap
     ethr =  1.03E-12,  avg # of iterations =  4.0

     total cpu time spent up to now is       15.8 secs

     total energy              =    -112.09755450 Ry
     estimated scf accuracy    <          4.3E-11 Ry

     iteration # 15     ecut=    45.00 Ry     beta= 0.50
     Davidson diagonalization with overlap
     ethr =  1.18E-13,  avg # of iterations =  5.0

     total cpu time spent up to now is       16.9 secs

     total energy              =    -112.09755450 Ry
     estimated scf accuracy    <          4.4E-12 Ry

     iteration # 16     ecut=    45.00 Ry     beta= 0.50
     Davidson diagonalization with overlap
     ethr =  1.00E-13,  avg # of iterations =  1.0

     total cpu time spent up to now is       17.6 secs

     End of self-consistent calculation

          k = 0.0000 0.0000 0.0000 ( 20326 PWs)   bands (ev):

   -26.4908 -20.6337 -17.9877 -17.8021 -14.9797 -14.3512 -13.0637 -11.6759
   -10.9469 -10.1870  -9.6534  -9.5168  -8.8078  -8.1124  -7.6595  -7.4885
    -5.7327  -4.9565

     highest occupied level (ev):    -4.9565

!    total energy              =    -112.09755450 Ry
     estimated scf accuracy    <          9.3E-13 Ry

     The total energy is the sum of the following terms:
     one-electron contribution =    -365.13810905 Ry
     hartree contribution      =     187.76152573 Ry
     xc contribution           =     -38.14005174 Ry
     ewald contribution        =     103.41908056 Ry

     convergence has been achieved in  16 iterations

     Forces acting on atoms (cartesian axes, Ry/au):

     atom    1 type  1   force =    -0.01977189   -0.02269450    0.00703171
     atom    2 type  1   force =     0.01231098   -0.00435673   -0.00029942
     atom    3 type  1   force =     0.01280898   -0.01429173    0.00039383
     atom    4 type  1   force =    -0.02074264   -0.02350296   -0.00290920
     atom    5 type  1   force =     0.02918902    0.01331393   -0.00387128
     atom    6 type  1   force =    -0.02377239    0.01610419   -0.00011149
     atom    7 type  2   force =    -0.00821229   -0.00733298    0.00014150
     atom    8 type  2   force =    -0.02887650    0.00653377    0.00019287
     atom    9 type  2   force =    -0.02091969    0.00131716    0.00024450
     atom   10 type  2   force =    -0.00294140    0.01482413    0.00033494
     atom   11 type  2   force =     0.00614678    0.00882816    0.00073777
     atom   12 type  2   force =     0.01570257   -0.00380453    0.00052726
     atom   13 type  3   force =     0.04907848    0.01506210   -0.00241299

     Total force =     0.095074     Total SCF correction =     0.000001

     Writing output data file ./Phenol.save/

     init_run     :      0.89s CPU      0.96s WALL (       1 calls)
     electrons    :     16.33s CPU     16.61s WALL (       1 calls)
     forces       :      0.58s CPU      0.59s WALL (       1 calls)

     Called by init_run:
     wfcinit      :      0.40s CPU      0.41s WALL (       1 calls)
     potinit      :      0.29s CPU      0.34s WALL (       1 calls)
     hinit0       :      0.15s CPU      0.16s WALL (       1 calls)

     Called by electrons:
     c_bands      :     10.80s CPU     10.86s WALL (      16 calls)
     sum_band     :      1.94s CPU      1.95s WALL (      16 calls)
     v_of_rho     :      3.04s CPU      3.25s WALL (      17 calls)
     mix_rho      :      0.62s CPU      0.64s WALL (      16 calls)

     Called by c_bands:
     init_us_2    :      0.14s CPU      0.14s WALL (      33 calls)
     regterg      :     10.61s CPU     10.67s WALL (      16 calls)

     Called by *egterg:
     rdiaghg      :      0.07s CPU      0.07s WALL (      80 calls)
     h_psi        :      9.38s CPU      9.44s WALL (      81 calls)
     g_psi        :      0.02s CPU      0.02s WALL (      64 calls)

     Called by h_psi:
     h_psi:calbec :      1.20s CPU      1.21s WALL (      81 calls)
     vloc_psi     :      7.21s CPU      7.26s WALL (      81 calls)
     add_vuspsi   :      0.93s CPU      0.93s WALL (      81 calls)

     General routines
     calbec       :      1.30s CPU      1.30s WALL (      85 calls)
     fft          :      1.91s CPU      1.96s WALL (     144 calls)
     ffts         :      0.22s CPU      0.22s WALL (      16 calls)
     fftw         :      6.89s CPU      6.94s WALL (    1042 calls)

     Parallel routines

     PWSCF        :     17.89s CPU     18.27s WALL


   This run was terminated on:   1:25:29  24May2021            

=------------------------------------------------------------------------------=
   JOB DONE.
=------------------------------------------------------------------------------=
