
     Program PWSCF v.6.7GPU starts on 24May2021 at  1:24:57 

     This program is part of the open-source Quantum ESPRESSO suite
     for quantum simulation of materials; please cite
         "P. Giannozzi et al., J. Phys.:Condens. Matter 21 395502 (2009);
         "P. Giannozzi et al., J. Phys.:Condens. Matter 29 465901 (2017);
         "P. Giannozzi et al., J. Chem. Phys. 152 154105 (2020);
          URL http://www.quantum-espresso.org", 
     in publications or presentations arising from this work. More details at
     http://www.quantum-espresso.org/quote

     Parallel version (MPI), running on     4 processors

     MPI processes distributed on     1 nodes
     R & G space division:  proc/nbgrp/npool/nimage =       4
     Waiting for input...
     Reading input from standard input
     Message from routine read_cards :
     DEPRECATED: no units specified in CELL_PARAMETERS card

     Current dimensions of program PWSCF are:
     Max number of different atomic species (ntypx) = 10
     Max number of k-points (npk) =  40000
     Max angular momentum in pseudopotentials (lmaxx) =  3

     gamma-point specific algorithms are used

     Subspace diagonalization in iterative solution of the eigenvalue problem:
     one sub-group per band group will be used
     scalapack distributed-memory algorithm (size of sub-group:  2*  2 procs)


     Parallelization info
     --------------------
     sticks:   dense  smooth     PW     G-vecs:    dense   smooth      PW
     Min        1271    1271    317                68355    68355    8565
     Max        1276    1276    322                68358    68358    8568
     Sum        5097    5097   1281               273425   273425   34265

     Using Slab Decomposition



     bravais-lattice index     =            0
     lattice parameter (alat)  =      20.0000  a.u.
     unit-cell volume          =    8000.0000 (a.u.)^3
     number of atoms/cell      =           13
     number of atomic types    =            3
     number of electrons       =        36.00
     number of Kohn-Sham states=           18
     kinetic-energy cutoff     =      40.0000  Ry
     charge density cutoff     =     160.0000  Ry
     scf convergence threshold =      1.0E-12
     mixing beta               =       0.5000
     number of iterations used =            8  plain     mixing
     Exchange-correlation= PBE
                           (   1   4   3   4   0   0   0)

     celldm(1)=  20.000000  celldm(2)=   0.000000  celldm(3)=   0.000000
     celldm(4)=   0.000000  celldm(5)=   0.000000  celldm(6)=   0.000000

     crystal axes: (cart. coord. in units of alat)
               a(1) = (   1.000000   0.000000   0.000000 )  
               a(2) = (   0.000000   1.000000   0.000000 )  
               a(3) = (   0.000000   0.000000   1.000000 )  

     reciprocal axes: (cart. coord. in units 2 pi/alat)
               b(1) = (  1.000000  0.000000  0.000000 )  
               b(2) = (  0.000000  1.000000  0.000000 )  
               b(3) = (  0.000000  0.000000  1.000000 )  


     PseudoPot. # 1 for C  read from file:
     /home/ciga/builds/pseudo_potentials/C.upf
     MD5 check sum: d80ec9912146af6c4c1760317d1f95e9
     Pseudo is Norm-conserving + core correction, Zval =  4.0
     Generated using ONCVPSP code by D. R. Hamann
     Using radial grid of 1248 points,  4 beta functions with: 
                l(1) =   0
                l(2) =   0
                l(3) =   1
                l(4) =   1

     PseudoPot. # 2 for H  read from file:
     /home/ciga/builds/pseudo_potentials/H.upf
     MD5 check sum: 418cee52d0c413ae40802e6cc37ab9e3
     Pseudo is Norm-conserving, Zval =  1.0
     Generated using ONCVPSP code by D. R. Hamann
     Using radial grid of 1166 points,  3 beta functions with: 
                l(1) =   0
                l(2) =   0
                l(3) =   1

     PseudoPot. # 3 for O  read from file:
     /home/ciga/builds/pseudo_potentials/O.upf
     MD5 check sum: e357869f07dbe8d608261c380baea405
     Pseudo is Norm-conserving + core correction, Zval =  6.0
     Generated using ONCVPSP code by D. R. Hamann
     Using radial grid of  936 points,  5 beta functions with: 
                l(1) =   0
                l(2) =   0
                l(3) =   1
                l(4) =   1
                l(5) =   2

     atomic species   valence    mass     pseudopotential
        C              4.00    12.01070     C ( 1.00)
        H              1.00     1.00794     H ( 1.00)
        O              6.00    15.99940     O ( 1.00)

     No symmetry found



   Cartesian axes

     site n.     atom                  positions (alat units)
         1           C   tau(   1) = (   0.4304248   0.5349588   0.4241547  )
         2           C   tau(   2) = (   0.4332159   0.2686643   0.4250854  )
         3           C   tau(   3) = (   0.3192466   0.3352629   0.4250835  )
         4           C   tau(   4) = (   0.3173984   0.4671365   0.4251950  )
         5           C   tau(   5) = (   0.5441136   0.4675815   0.4254529  )
         6           C   tau(   6) = (   0.5470606   0.3354462   0.4252196  )
         7           H   tau(   7) = (   0.4367478   0.1663828   0.4247726  )
         8           H   tau(   8) = (   0.3431658   0.6917635   0.4273795  )
         9           H   tau(   9) = (   0.2338168   0.2800225   0.4250155  )
        10           H   tau(  10) = (   0.2252828   0.5120959   0.4248737  )
        11           H   tau(  11) = (   0.6325896   0.5189821   0.4250145  )
        12           H   tau(  12) = (   0.6356283   0.2854630   0.4249200  )
        13           O   tau(  13) = (   0.4287505   0.6636728   0.4252309  )

     number of k points=     1
                       cart. coord. in units 2pi/alat
        k(    1) = (   0.0000000   0.0000000   0.0000000), wk =   2.0000000

     Dense  grid:   136713 G-vectors     FFT dimensions: (  81,  81,  81)

     Estimated max dynamical RAM per process >      39.75 MB

     Estimated total dynamical RAM >     159.01 MB

     Check: negative core charge=   -0.000041

     Initial potential from superposition of free atoms

     starting charge   35.99967, renormalised to   36.00000

     negative rho (up, down):  9.319E-03 0.000E+00
     Starting wfcs are   34 randomized atomic wfcs

     total cpu time spent up to now is        0.8 secs

     Self-consistent Calculation

     iteration #  1     ecut=    40.00 Ry     beta= 0.50
     Davidson diagonalization with overlap
     ethr =  1.00E-02,  avg # of iterations =  2.0

     negative rho (up, down):  4.441E-03 0.000E+00

     total cpu time spent up to now is        1.6 secs

     total energy              =    -111.70351656 Ry
     estimated scf accuracy    <       1.35659054 Ry

     iteration #  2     ecut=    40.00 Ry     beta= 0.50
     Davidson diagonalization with overlap
     ethr =  3.77E-03,  avg # of iterations =  2.0

     negative rho (up, down):  1.843E-03 0.000E+00

     total cpu time spent up to now is        2.3 secs

     total energy              =    -111.89375530 Ry
     estimated scf accuracy    <       0.10614526 Ry

     iteration #  3     ecut=    40.00 Ry     beta= 0.50
     Davidson diagonalization with overlap
     ethr =  2.95E-04,  avg # of iterations =  4.0

     negative rho (up, down):  3.071E-04 0.000E+00

     total cpu time spent up to now is        3.0 secs

     total energy              =    -111.89297298 Ry
     estimated scf accuracy    <       0.02498037 Ry

     iteration #  4     ecut=    40.00 Ry     beta= 0.50
     Davidson diagonalization with overlap
     ethr =  6.94E-05,  avg # of iterations =  5.0

     negative rho (up, down):  9.877E-05 0.000E+00

     total cpu time spent up to now is        3.7 secs

     total energy              =    -111.89781824 Ry
     estimated scf accuracy    <       0.01220058 Ry

     iteration #  5     ecut=    40.00 Ry     beta= 0.50
     Davidson diagonalization with overlap
     ethr =  3.39E-05,  avg # of iterations =  3.0

     negative rho (up, down):  1.428E-05 0.000E+00

     total cpu time spent up to now is        4.3 secs

     total energy              =    -111.89759534 Ry
     estimated scf accuracy    <       0.00221283 Ry

     iteration #  6     ecut=    40.00 Ry     beta= 0.50
     Davidson diagonalization with overlap
     ethr =  6.15E-06,  avg # of iterations =  6.0

     negative rho (up, down):  1.848E-06 0.000E+00

     total cpu time spent up to now is        5.1 secs

     total energy              =    -111.89863830 Ry
     estimated scf accuracy    <       0.00131022 Ry

     iteration #  7     ecut=    40.00 Ry     beta= 0.50
     Davidson diagonalization with overlap
     ethr =  3.64E-06,  avg # of iterations =  5.0

     negative rho (up, down):  1.565E-08 0.000E+00

     total cpu time spent up to now is        5.8 secs

     total energy              =    -111.89875571 Ry
     estimated scf accuracy    <       0.00007898 Ry

     iteration #  8     ecut=    40.00 Ry     beta= 0.50
     Davidson diagonalization with overlap
     ethr =  2.19E-07,  avg # of iterations =  6.0

     total cpu time spent up to now is        6.6 secs

     total energy              =    -111.89878890 Ry
     estimated scf accuracy    <       0.00002656 Ry

     iteration #  9     ecut=    40.00 Ry     beta= 0.50
     Davidson diagonalization with overlap
     ethr =  7.38E-08,  avg # of iterations =  5.0

     total cpu time spent up to now is        7.3 secs

     total energy              =    -111.89879434 Ry
     estimated scf accuracy    <       0.00000060 Ry

     iteration # 10     ecut=    40.00 Ry     beta= 0.50
     Davidson diagonalization with overlap
     ethr =  1.67E-09,  avg # of iterations =  3.0

     total cpu time spent up to now is        8.1 secs

     total energy              =    -111.89879450 Ry
     estimated scf accuracy    <       0.00000008 Ry

     iteration # 11     ecut=    40.00 Ry     beta= 0.50
     Davidson diagonalization with overlap
     ethr =  2.19E-10,  avg # of iterations =  6.0

     total cpu time spent up to now is        8.9 secs

     total energy              =    -111.89879452 Ry
     estimated scf accuracy    <       0.00000002 Ry

     iteration # 12     ecut=    40.00 Ry     beta= 0.50
     Davidson diagonalization with overlap
     ethr =  5.67E-11,  avg # of iterations =  5.0

     total cpu time spent up to now is        9.7 secs

     total energy              =    -111.89879453 Ry
     estimated scf accuracy    <          1.4E-09 Ry

     iteration # 13     ecut=    40.00 Ry     beta= 0.50
     Davidson diagonalization with overlap
     ethr =  3.75E-12,  avg # of iterations =  6.0

     total cpu time spent up to now is       10.5 secs

     total energy              =    -111.89879453 Ry
     estimated scf accuracy    <          6.6E-09 Ry

     iteration # 14     ecut=    40.00 Ry     beta= 0.50
     Davidson diagonalization with overlap
     ethr =  3.75E-12,  avg # of iterations =  6.0

     total cpu time spent up to now is       11.3 secs

     total energy              =    -111.89879453 Ry
     estimated scf accuracy    <          4.6E-11 Ry

     iteration # 15     ecut=    40.00 Ry     beta= 0.50
     Davidson diagonalization with overlap
     ethr =  1.28E-13,  avg # of iterations =  6.0

     total cpu time spent up to now is       12.3 secs

     total energy              =    -111.89879453 Ry
     estimated scf accuracy    <          1.2E-10 Ry

     iteration # 16     ecut=    40.00 Ry     beta= 0.50
     Davidson diagonalization with overlap
     ethr =  1.28E-13,  avg # of iterations =  5.0

     total cpu time spent up to now is       13.1 secs

     total energy              =    -111.89879453 Ry
     estimated scf accuracy    <          1.7E-11 Ry

     iteration # 17     ecut=    40.00 Ry     beta= 0.50
     Davidson diagonalization with overlap
     ethr =  1.00E-13,  avg # of iterations =  4.0

     total cpu time spent up to now is       13.7 secs

     End of self-consistent calculation

          k = 0.0000 0.0000 0.0000 ( 17133 PWs)   bands (ev):

   -26.7192 -20.6998 -18.0403 -17.8664 -15.0150 -14.3876 -13.0848 -11.6977
   -10.9608 -10.1972  -9.6582  -9.5433  -8.8366  -8.1147  -7.6732  -7.4956
    -5.7405  -4.9588

     highest occupied level (ev):    -4.9588

!    total energy              =    -111.89879453 Ry
     estimated scf accuracy    <          8.2E-13 Ry

     The total energy is the sum of the following terms:
     one-electron contribution =    -364.70405729 Ry
     hartree contribution      =     187.46294411 Ry
     xc contribution           =     -38.07676191 Ry
     ewald contribution        =     103.41908056 Ry

     convergence has been achieved in  17 iterations

     Forces acting on atoms (cartesian axes, Ry/au):

     atom    1 type  1   force =    -0.02142913   -0.01355293    0.00713359
     atom    2 type  1   force =     0.01219249   -0.00631867   -0.00035103
     atom    3 type  1   force =     0.01178634   -0.01457328    0.00032180
     atom    4 type  1   force =    -0.02240562   -0.02578928   -0.00300917
     atom    5 type  1   force =     0.03052770    0.01275464   -0.00394908
     atom    6 type  1   force =    -0.02339516    0.01572395   -0.00019200
     atom    7 type  2   force =    -0.00820385   -0.00837877    0.00007605
     atom    8 type  2   force =    -0.04238699    0.00908086    0.00043152
     atom    9 type  2   force =    -0.02229218    0.00029147    0.00017477
     atom   10 type  2   force =    -0.00443783    0.01520765    0.00025878
     atom   11 type  2   force =     0.00759134    0.00951444    0.00066050
     atom   12 type  2   force =     0.01721355   -0.00472875    0.00045779
     atom   13 type  3   force =     0.06523935    0.01076866   -0.00201353

     Total force =     0.109194     Total SCF correction =     0.000002

     Writing output data file ./Phenol.save/

     init_run     :      0.69s CPU      0.73s WALL (       1 calls)
     electrons    :     12.66s CPU     12.89s WALL (       1 calls)
     forces       :      0.46s CPU      0.46s WALL (       1 calls)

     Called by init_run:
     wfcinit      :      0.29s CPU      0.29s WALL (       1 calls)
     potinit      :      0.25s CPU      0.27s WALL (       1 calls)
     hinit0       :      0.12s CPU      0.13s WALL (       1 calls)

     Called by electrons:
     c_bands      :      8.40s CPU      8.47s WALL (      17 calls)
     sum_band     :      1.41s CPU      1.43s WALL (      17 calls)
     v_of_rho     :      2.39s CPU      2.54s WALL (      18 calls)
     mix_rho      :      0.51s CPU      0.52s WALL (      17 calls)

     Called by c_bands:
     init_us_2    :      0.13s CPU      0.13s WALL (      35 calls)
     regterg      :      8.24s CPU      8.30s WALL (      17 calls)

     Called by *egterg:
     rdiaghg      :      0.08s CPU      0.08s WALL (      96 calls)
     h_psi        :      7.06s CPU      7.12s WALL (      97 calls)
     g_psi        :      0.02s CPU      0.02s WALL (      79 calls)

     Called by h_psi:
     h_psi:calbec :      1.09s CPU      1.10s WALL (      97 calls)
     vloc_psi     :      5.08s CPU      5.13s WALL (      97 calls)
     add_vuspsi   :      0.85s CPU      0.85s WALL (      97 calls)

     General routines
     calbec       :      1.17s CPU      1.17s WALL (     101 calls)
     fft          :      1.44s CPU      1.47s WALL (     152 calls)
     ffts         :      0.16s CPU      0.16s WALL (      17 calls)
     fftw         :      4.71s CPU      4.76s WALL (    1135 calls)

     Parallel routines

     PWSCF        :     13.93s CPU     14.22s WALL


   This run was terminated on:   1:25:11  24May2021            

=------------------------------------------------------------------------------=
   JOB DONE.
=------------------------------------------------------------------------------=
