
     Program PWSCF v.6.7GPU starts on 24May2021 at  6:49:53 

     This program is part of the open-source Quantum ESPRESSO suite
     for quantum simulation of materials; please cite
         "P. Giannozzi et al., J. Phys.:Condens. Matter 21 395502 (2009);
         "P. Giannozzi et al., J. Phys.:Condens. Matter 29 465901 (2017);
         "P. Giannozzi et al., J. Chem. Phys. 152 154105 (2020);
          URL http://www.quantum-espresso.org", 
     in publications or presentations arising from this work. More details at
     http://www.quantum-espresso.org/quote

     Parallel version (MPI), running on     4 processors

     MPI processes distributed on     1 nodes
     R & G space division:  proc/nbgrp/npool/nimage =       4
     Waiting for input...
     Reading input from standard input
     Message from routine read_cards :
     DEPRECATED: no units specified in CELL_PARAMETERS card

     Current dimensions of program PWSCF are:
     Max number of different atomic species (ntypx) = 10
     Max number of k-points (npk) =  40000
     Max angular momentum in pseudopotentials (lmaxx) =  3

     gamma-point specific algorithms are used

     Subspace diagonalization in iterative solution of the eigenvalue problem:
     one sub-group per band group will be used
     scalapack distributed-memory algorithm (size of sub-group:  2*  2 procs)


     Parallelization info
     --------------------
     sticks:   dense  smooth     PW     G-vecs:    dense   smooth      PW
     Min        2700    2700    675               211636   211636   26505
     Max        2704    2704    678               211641   211641   26514
     Sum       10805   10805   2709               846553   846553  106047

     Using Slab Decomposition



     bravais-lattice index     =            0
     lattice parameter (alat)  =      20.0000  a.u.
     unit-cell volume          =    8000.0000 (a.u.)^3
     number of atoms/cell      =           11
     number of atomic types    =            2
     number of electrons       =        20.00
     number of Kohn-Sham states=           10
     kinetic-energy cutoff     =      85.0000  Ry
     charge density cutoff     =     340.0000  Ry
     scf convergence threshold =      1.0E-12
     mixing beta               =       0.5000
     number of iterations used =            8  plain     mixing
     Exchange-correlation= PBE
                           (   1   4   3   4   0   0   0)

     celldm(1)=  20.000000  celldm(2)=   0.000000  celldm(3)=   0.000000
     celldm(4)=   0.000000  celldm(5)=   0.000000  celldm(6)=   0.000000

     crystal axes: (cart. coord. in units of alat)
               a(1) = (   1.000000   0.000000   0.000000 )  
               a(2) = (   0.000000   1.000000   0.000000 )  
               a(3) = (   0.000000   0.000000   1.000000 )  

     reciprocal axes: (cart. coord. in units 2 pi/alat)
               b(1) = (  1.000000  0.000000  0.000000 )  
               b(2) = (  0.000000  1.000000  0.000000 )  
               b(3) = (  0.000000  0.000000  1.000000 )  


     PseudoPot. # 1 for C  read from file:
     /home/ciga/builds/pseudo_potentials/C.upf
     MD5 check sum: d80ec9912146af6c4c1760317d1f95e9
     Pseudo is Norm-conserving + core correction, Zval =  4.0
     Generated using ONCVPSP code by D. R. Hamann
     Using radial grid of 1248 points,  4 beta functions with: 
                l(1) =   0
                l(2) =   0
                l(3) =   1
                l(4) =   1

     PseudoPot. # 2 for H  read from file:
     /home/ciga/builds/pseudo_potentials/H.upf
     MD5 check sum: 418cee52d0c413ae40802e6cc37ab9e3
     Pseudo is Norm-conserving, Zval =  1.0
     Generated using ONCVPSP code by D. R. Hamann
     Using radial grid of 1166 points,  3 beta functions with: 
                l(1) =   0
                l(2) =   0
                l(3) =   1

     atomic species   valence    mass     pseudopotential
        C              4.00    12.01070     C ( 1.00)
        H              1.00     1.00794     H ( 1.00)

     No symmetry found



   Cartesian axes

     site n.     atom                  positions (alat units)
         1           C   tau(   1) = (   0.0000000   0.0553973  -0.0000000  )
         2           C   tau(   2) = (  -0.1198181  -0.0248121   0.0000000  )
         3           C   tau(   3) = (   0.1198181  -0.0248121  -0.0000000  )
         4           H   tau(   4) = (   0.0000000   0.1176260   0.0827700  )
         5           H   tau(   5) = (  -0.0000283   0.1176638  -0.0827511  )
         6           H   tau(   6) = (  -0.2038637   0.0353568   0.0000000  )
         7           H   tau(   7) = (   0.2038637   0.0353662   0.0000000  )
         8           H   tau(   8) = (  -0.1253928  -0.0851700   0.0831479  )
         9           H   tau(   9) = (  -0.1253928  -0.0851700  -0.0831479  )
        10           H   tau(  10) = (   0.1253928  -0.0851700  -0.0831479  )
        11           H   tau(  11) = (   0.1254022  -0.0851700   0.0831479  )

     number of k points=     1
                       cart. coord. in units 2pi/alat
        k(    1) = (   0.0000000   0.0000000   0.0000000), wk =   2.0000000

     Dense  grid:   423277 G-vectors     FFT dimensions: ( 120, 120, 120)

     Estimated max dynamical RAM per process >     100.77 MB

     Estimated total dynamical RAM >     403.07 MB

     Initial potential from superposition of free atoms

     starting charge   19.99979, renormalised to   20.00000

     negative rho (up, down):  2.944E-05 0.000E+00
     Starting wfcs are   20 randomized atomic wfcs

     total cpu time spent up to now is        1.6 secs

     Self-consistent Calculation

     iteration #  1     ecut=    85.00 Ry     beta= 0.50
     Davidson diagonalization with overlap
     ethr =  1.00E-02,  avg # of iterations =  2.0

     negative rho (up, down):  5.209E-06 0.000E+00

     total cpu time spent up to now is        3.1 secs

     total energy              =     -45.39823661 Ry
     estimated scf accuracy    <       1.38294926 Ry

     iteration #  2     ecut=    85.00 Ry     beta= 0.50
     Davidson diagonalization with overlap
     ethr =  6.91E-03,  avg # of iterations =  2.0

     negative rho (up, down):  1.349E-06 0.000E+00

     total cpu time spent up to now is        4.6 secs

     total energy              =     -45.64636014 Ry
     estimated scf accuracy    <       0.09965345 Ry

     iteration #  3     ecut=    85.00 Ry     beta= 0.50
     Davidson diagonalization with overlap
     ethr =  4.98E-04,  avg # of iterations =  1.0

     negative rho (up, down):  7.119E-08 0.000E+00

     total cpu time spent up to now is        5.8 secs

     total energy              =     -45.63947233 Ry
     estimated scf accuracy    <       0.02331024 Ry

     iteration #  4     ecut=    85.00 Ry     beta= 0.50
     Davidson diagonalization with overlap
     ethr =  1.17E-04,  avg # of iterations =  2.0

     negative rho (up, down):  2.289E-08 0.000E+00

     total cpu time spent up to now is        7.2 secs

     total energy              =     -45.64179944 Ry
     estimated scf accuracy    <       0.00353121 Ry

     iteration #  5     ecut=    85.00 Ry     beta= 0.50
     Davidson diagonalization with overlap
     ethr =  1.77E-05,  avg # of iterations =  2.0

     total cpu time spent up to now is        8.7 secs

     total energy              =     -45.64275947 Ry
     estimated scf accuracy    <       0.00111745 Ry

     iteration #  6     ecut=    85.00 Ry     beta= 0.50
     Davidson diagonalization with overlap
     ethr =  5.59E-06,  avg # of iterations =  2.0

     total cpu time spent up to now is       10.2 secs

     total energy              =     -45.64304125 Ry
     estimated scf accuracy    <       0.00007839 Ry

     iteration #  7     ecut=    85.00 Ry     beta= 0.50
     Davidson diagonalization with overlap
     ethr =  3.92E-07,  avg # of iterations =  2.0

     total cpu time spent up to now is       11.7 secs

     total energy              =     -45.64305906 Ry
     estimated scf accuracy    <       0.00000067 Ry

     iteration #  8     ecut=    85.00 Ry     beta= 0.50
     Davidson diagonalization with overlap
     ethr =  3.35E-09,  avg # of iterations =  3.0

     total cpu time spent up to now is       13.2 secs

     total energy              =     -45.64305938 Ry
     estimated scf accuracy    <       0.00000009 Ry

     iteration #  9     ecut=    85.00 Ry     beta= 0.50
     Davidson diagonalization with overlap
     ethr =  4.40E-10,  avg # of iterations =  3.0

     total cpu time spent up to now is       14.8 secs

     total energy              =     -45.64305939 Ry
     estimated scf accuracy    <          7.8E-09 Ry

     iteration # 10     ecut=    85.00 Ry     beta= 0.50
     Davidson diagonalization with overlap
     ethr =  3.88E-11,  avg # of iterations =  3.0

     total cpu time spent up to now is       16.4 secs

     total energy              =     -45.64305939 Ry
     estimated scf accuracy    <          1.3E-09 Ry

     iteration # 11     ecut=    85.00 Ry     beta= 0.50
     Davidson diagonalization with overlap
     ethr =  6.56E-12,  avg # of iterations =  2.0

     total cpu time spent up to now is       18.0 secs

     total energy              =     -45.64305939 Ry
     estimated scf accuracy    <          7.8E-10 Ry

     iteration # 12     ecut=    85.00 Ry     beta= 0.50
     Davidson diagonalization with overlap
     ethr =  3.91E-12,  avg # of iterations =  2.0

     total cpu time spent up to now is       19.5 secs

     total energy              =     -45.64305939 Ry
     estimated scf accuracy    <          3.4E-12 Ry

     iteration # 13     ecut=    85.00 Ry     beta= 0.50
     Davidson diagonalization with overlap
     ethr =  1.00E-13,  avg # of iterations =  4.0

     total cpu time spent up to now is       21.3 secs

     total energy              =     -45.64305939 Ry
     estimated scf accuracy    <          1.1E-11 Ry

     iteration # 14     ecut=    85.00 Ry     beta= 0.50
     Davidson diagonalization with overlap
     ethr =  1.00E-13,  avg # of iterations =  2.0

     total cpu time spent up to now is       22.8 secs

     total energy              =     -45.64305939 Ry
     estimated scf accuracy    <          2.6E-12 Ry

     iteration # 15     ecut=    85.00 Ry     beta= 0.50
     Davidson diagonalization with overlap
     ethr =  1.00E-13,  avg # of iterations =  1.0

     total cpu time spent up to now is       23.9 secs

     End of self-consistent calculation

          k = 0.0000 0.0000 0.0000 ( 53024 PWs)   bands (ev):

   -18.9343 -16.3722 -13.9250 -10.7707 -10.2197  -9.3076  -8.8109  -7.7155
    -7.6440  -7.4069

     highest occupied level (ev):    -7.4069

!    total energy              =     -45.64305939 Ry
     estimated scf accuracy    <          3.3E-13 Ry

     The total energy is the sum of the following terms:
     one-electron contribution =    -148.27190302 Ry
     hartree contribution      =      76.72852596 Ry
     xc contribution           =     -18.64832389 Ry
     ewald contribution        =      44.54864156 Ry

     convergence has been achieved in  15 iterations

     Forces acting on atoms (cartesian axes, Ry/au):

     atom    1 type  1   force =    -0.00005186   -0.01028774   -0.00001182
     atom    2 type  1   force =    -0.00465872    0.01513579    0.00000379
     atom    3 type  1   force =     0.00471355    0.01522305   -0.00004506
     atom    4 type  2   force =    -0.00000090    0.00294381    0.00403218
     atom    5 type  2   force =     0.00006052    0.00285205   -0.00396522
     atom    6 type  2   force =    -0.00593686    0.00151719    0.00000047
     atom    7 type  2   force =     0.00588775    0.00146641   -0.00000787
     atom    8 type  2   force =     0.00157503   -0.00721812    0.00946661
     atom    9 type  2   force =     0.00157506   -0.00721632   -0.00946892
     atom   10 type  2   force =    -0.00156676   -0.00721338   -0.00946845
     atom   11 type  2   force =    -0.00159680   -0.00720273    0.00946428

     Total force =     0.036198     Total SCF correction =     0.000001

     Writing output data file ./Propane.save/

     init_run     :      1.45s CPU      1.51s WALL (       1 calls)
     electrons    :     21.91s CPU     22.34s WALL (       1 calls)
     forces       :      0.93s CPU      0.97s WALL (       1 calls)

     Called by init_run:
     wfcinit      :      0.50s CPU      0.52s WALL (       1 calls)
     potinit      :      0.57s CPU      0.60s WALL (       1 calls)
     hinit0       :      0.19s CPU      0.21s WALL (       1 calls)

     Called by electrons:
     c_bands      :     11.55s CPU     11.62s WALL (      15 calls)
     sum_band     :      2.92s CPU      2.93s WALL (      15 calls)
     v_of_rho     :      5.91s CPU      6.24s WALL (      16 calls)
     mix_rho      :      1.74s CPU      1.77s WALL (      15 calls)

     Called by c_bands:
     init_us_2    :      0.22s CPU      0.23s WALL (      31 calls)
     regterg      :     11.29s CPU     11.35s WALL (      15 calls)

     Called by *egterg:
     rdiaghg      :      0.03s CPU      0.03s WALL (      48 calls)
     h_psi        :     10.30s CPU     10.37s WALL (      49 calls)
     g_psi        :      0.03s CPU      0.03s WALL (      33 calls)

     Called by h_psi:
     h_psi:calbec :      1.09s CPU      1.09s WALL (      49 calls)
     vloc_psi     :      8.23s CPU      8.29s WALL (      49 calls)
     add_vuspsi   :      0.91s CPU      0.91s WALL (      49 calls)

     General routines
     calbec       :      1.18s CPU      1.18s WALL (      53 calls)
     fft          :      4.23s CPU      4.33s WALL (     136 calls)
     ffts         :      0.45s CPU      0.45s WALL (      15 calls)
     fftw         :      7.71s CPU      7.76s WALL (     539 calls)

     Parallel routines

     PWSCF        :     24.39s CPU     24.94s WALL


   This run was terminated on:   6:50:18  24May2021            

=------------------------------------------------------------------------------=
   JOB DONE.
=------------------------------------------------------------------------------=
