
     Program PWSCF v.6.7GPU starts on 24May2021 at  6:49:31 

     This program is part of the open-source Quantum ESPRESSO suite
     for quantum simulation of materials; please cite
         "P. Giannozzi et al., J. Phys.:Condens. Matter 21 395502 (2009);
         "P. Giannozzi et al., J. Phys.:Condens. Matter 29 465901 (2017);
         "P. Giannozzi et al., J. Chem. Phys. 152 154105 (2020);
          URL http://www.quantum-espresso.org", 
     in publications or presentations arising from this work. More details at
     http://www.quantum-espresso.org/quote

     Parallel version (MPI), running on     4 processors

     MPI processes distributed on     1 nodes
     R & G space division:  proc/nbgrp/npool/nimage =       4
     Waiting for input...
     Reading input from standard input
     Message from routine read_cards :
     DEPRECATED: no units specified in CELL_PARAMETERS card

     Current dimensions of program PWSCF are:
     Max number of different atomic species (ntypx) = 10
     Max number of k-points (npk) =  40000
     Max angular momentum in pseudopotentials (lmaxx) =  3

     gamma-point specific algorithms are used

     Subspace diagonalization in iterative solution of the eigenvalue problem:
     one sub-group per band group will be used
     scalapack distributed-memory algorithm (size of sub-group:  2*  2 procs)


     Parallelization info
     --------------------
     sticks:   dense  smooth     PW     G-vecs:    dense   smooth      PW
     Min        2543    2543    637               193371   193371   24241
     Max        2548    2548    642               193374   193374   24244
     Sum       10185   10185   2561               773489   773489   96969

     Using Slab Decomposition



     bravais-lattice index     =            0
     lattice parameter (alat)  =      20.0000  a.u.
     unit-cell volume          =    8000.0000 (a.u.)^3
     number of atoms/cell      =           11
     number of atomic types    =            2
     number of electrons       =        20.00
     number of Kohn-Sham states=           10
     kinetic-energy cutoff     =      80.0000  Ry
     charge density cutoff     =     320.0000  Ry
     scf convergence threshold =      1.0E-12
     mixing beta               =       0.5000
     number of iterations used =            8  plain     mixing
     Exchange-correlation= PBE
                           (   1   4   3   4   0   0   0)

     celldm(1)=  20.000000  celldm(2)=   0.000000  celldm(3)=   0.000000
     celldm(4)=   0.000000  celldm(5)=   0.000000  celldm(6)=   0.000000

     crystal axes: (cart. coord. in units of alat)
               a(1) = (   1.000000   0.000000   0.000000 )  
               a(2) = (   0.000000   1.000000   0.000000 )  
               a(3) = (   0.000000   0.000000   1.000000 )  

     reciprocal axes: (cart. coord. in units 2 pi/alat)
               b(1) = (  1.000000  0.000000  0.000000 )  
               b(2) = (  0.000000  1.000000  0.000000 )  
               b(3) = (  0.000000  0.000000  1.000000 )  


     PseudoPot. # 1 for C  read from file:
     /home/ciga/builds/pseudo_potentials/C.upf
     MD5 check sum: d80ec9912146af6c4c1760317d1f95e9
     Pseudo is Norm-conserving + core correction, Zval =  4.0
     Generated using ONCVPSP code by D. R. Hamann
     Using radial grid of 1248 points,  4 beta functions with: 
                l(1) =   0
                l(2) =   0
                l(3) =   1
                l(4) =   1

     PseudoPot. # 2 for H  read from file:
     /home/ciga/builds/pseudo_potentials/H.upf
     MD5 check sum: 418cee52d0c413ae40802e6cc37ab9e3
     Pseudo is Norm-conserving, Zval =  1.0
     Generated using ONCVPSP code by D. R. Hamann
     Using radial grid of 1166 points,  3 beta functions with: 
                l(1) =   0
                l(2) =   0
                l(3) =   1

     atomic species   valence    mass     pseudopotential
        C              4.00    12.01070     C ( 1.00)
        H              1.00     1.00794     H ( 1.00)

     No symmetry found



   Cartesian axes

     site n.     atom                  positions (alat units)
         1           C   tau(   1) = (   0.0000000   0.0553973  -0.0000000  )
         2           C   tau(   2) = (  -0.1198181  -0.0248121   0.0000000  )
         3           C   tau(   3) = (   0.1198181  -0.0248121  -0.0000000  )
         4           H   tau(   4) = (   0.0000000   0.1176260   0.0827700  )
         5           H   tau(   5) = (  -0.0000283   0.1176638  -0.0827511  )
         6           H   tau(   6) = (  -0.2038637   0.0353568   0.0000000  )
         7           H   tau(   7) = (   0.2038637   0.0353662   0.0000000  )
         8           H   tau(   8) = (  -0.1253928  -0.0851700   0.0831479  )
         9           H   tau(   9) = (  -0.1253928  -0.0851700  -0.0831479  )
        10           H   tau(  10) = (   0.1253928  -0.0851700  -0.0831479  )
        11           H   tau(  11) = (   0.1254022  -0.0851700   0.0831479  )

     number of k points=     1
                       cart. coord. in units 2pi/alat
        k(    1) = (   0.0000000   0.0000000   0.0000000), wk =   2.0000000

     Dense  grid:   386745 G-vectors     FFT dimensions: ( 120, 120, 120)

     Estimated max dynamical RAM per process >      94.66 MB

     Estimated total dynamical RAM >     378.66 MB

     Initial potential from superposition of free atoms

     starting charge   19.99979, renormalised to   20.00000

     negative rho (up, down):  5.826E-05 0.000E+00
     Starting wfcs are   20 randomized atomic wfcs

     total cpu time spent up to now is        1.5 secs

     Self-consistent Calculation

     iteration #  1     ecut=    80.00 Ry     beta= 0.50
     Davidson diagonalization with overlap
     ethr =  1.00E-02,  avg # of iterations =  2.0

     negative rho (up, down):  1.625E-05 0.000E+00

     total cpu time spent up to now is        3.0 secs

     total energy              =     -45.39722596 Ry
     estimated scf accuracy    <       1.38433963 Ry

     iteration #  2     ecut=    80.00 Ry     beta= 0.50
     Davidson diagonalization with overlap
     ethr =  6.92E-03,  avg # of iterations =  2.0

     negative rho (up, down):  5.546E-06 0.000E+00

     total cpu time spent up to now is        4.4 secs

     total energy              =     -45.64621480 Ry
     estimated scf accuracy    <       0.09988948 Ry

     iteration #  3     ecut=    80.00 Ry     beta= 0.50
     Davidson diagonalization with overlap
     ethr =  4.99E-04,  avg # of iterations =  1.0

     negative rho (up, down):  3.485E-07 0.000E+00

     total cpu time spent up to now is        5.5 secs

     total energy              =     -45.63929085 Ry
     estimated scf accuracy    <       0.02340043 Ry

     iteration #  4     ecut=    80.00 Ry     beta= 0.50
     Davidson diagonalization with overlap
     ethr =  1.17E-04,  avg # of iterations =  2.0

     negative rho (up, down):  1.441E-07 0.000E+00

     total cpu time spent up to now is        6.9 secs

     total energy              =     -45.64163399 Ry
     estimated scf accuracy    <       0.00357041 Ry

     iteration #  5     ecut=    80.00 Ry     beta= 0.50
     Davidson diagonalization with overlap
     ethr =  1.79E-05,  avg # of iterations =  2.0

     negative rho (up, down):  2.169E-08 0.000E+00

     total cpu time spent up to now is        8.4 secs

     total energy              =     -45.64260966 Ry
     estimated scf accuracy    <       0.00109355 Ry

     iteration #  6     ecut=    80.00 Ry     beta= 0.50
     Davidson diagonalization with overlap
     ethr =  5.47E-06,  avg # of iterations =  2.0

     total cpu time spent up to now is        9.8 secs

     total energy              =     -45.64288365 Ry
     estimated scf accuracy    <       0.00007350 Ry

     iteration #  7     ecut=    80.00 Ry     beta= 0.50
     Davidson diagonalization with overlap
     ethr =  3.68E-07,  avg # of iterations =  2.0

     total cpu time spent up to now is       11.3 secs

     total energy              =     -45.64290076 Ry
     estimated scf accuracy    <       0.00000072 Ry

     iteration #  8     ecut=    80.00 Ry     beta= 0.50
     Davidson diagonalization with overlap
     ethr =  3.58E-09,  avg # of iterations =  3.0

     total cpu time spent up to now is       12.8 secs

     total energy              =     -45.64290104 Ry
     estimated scf accuracy    <       0.00000008 Ry

     iteration #  9     ecut=    80.00 Ry     beta= 0.50
     Davidson diagonalization with overlap
     ethr =  3.97E-10,  avg # of iterations =  3.0

     total cpu time spent up to now is       14.3 secs

     total energy              =     -45.64290104 Ry
     estimated scf accuracy    <       0.00000001 Ry

     iteration # 10     ecut=    80.00 Ry     beta= 0.50
     Davidson diagonalization with overlap
     ethr =  7.13E-11,  avg # of iterations =  2.0

     total cpu time spent up to now is       15.8 secs

     total energy              =     -45.64290105 Ry
     estimated scf accuracy    <          1.5E-09 Ry

     iteration # 11     ecut=    80.00 Ry     beta= 0.50
     Davidson diagonalization with overlap
     ethr =  7.36E-12,  avg # of iterations =  3.0

     total cpu time spent up to now is       17.3 secs

     total energy              =     -45.64290105 Ry
     estimated scf accuracy    <          8.1E-10 Ry

     iteration # 12     ecut=    80.00 Ry     beta= 0.50
     Davidson diagonalization with overlap
     ethr =  4.03E-12,  avg # of iterations =  2.0

     total cpu time spent up to now is       18.8 secs

     total energy              =     -45.64290105 Ry
     estimated scf accuracy    <          9.4E-12 Ry

     iteration # 13     ecut=    80.00 Ry     beta= 0.50
     Davidson diagonalization with overlap
     ethr =  1.00E-13,  avg # of iterations =  3.0

     total cpu time spent up to now is       20.4 secs

     total energy              =     -45.64290105 Ry
     estimated scf accuracy    <          3.0E-12 Ry

     iteration # 14     ecut=    80.00 Ry     beta= 0.50
     Davidson diagonalization with overlap
     ethr =  1.00E-13,  avg # of iterations =  1.0

     total cpu time spent up to now is       21.5 secs

     End of self-consistent calculation

          k = 0.0000 0.0000 0.0000 ( 48485 PWs)   bands (ev):

   -18.9345 -16.3723 -13.9251 -10.7708 -10.2197  -9.3076  -8.8109  -7.7155
    -7.6440  -7.4069

     highest occupied level (ev):    -7.4069

!    total energy              =     -45.64290105 Ry
     estimated scf accuracy    <          3.1E-14 Ry

     The total energy is the sum of the following terms:
     one-electron contribution =    -148.27163198 Ry
     hartree contribution      =      76.72833315 Ry
     xc contribution           =     -18.64824378 Ry
     ewald contribution        =      44.54864156 Ry

     convergence has been achieved in  14 iterations

     Forces acting on atoms (cartesian axes, Ry/au):

     atom    1 type  1   force =    -0.00005185   -0.01027907   -0.00001180
     atom    2 type  1   force =    -0.00466417    0.01513289    0.00000386
     atom    3 type  1   force =     0.00471902    0.01522017   -0.00004502
     atom    4 type  2   force =    -0.00000091    0.00295026    0.00404111
     atom    5 type  2   force =     0.00006051    0.00285850   -0.00397417
     atom    6 type  2   force =    -0.00594535    0.00152389    0.00000046
     atom    7 type  2   force =     0.00589623    0.00147311   -0.00000789
     atom    8 type  2   force =     0.00157449   -0.00722541    0.00947681
     atom    9 type  2   force =     0.00157452   -0.00722361   -0.00947916
     atom   10 type  2   force =    -0.00156623   -0.00722069   -0.00947870
     atom   11 type  2   force =    -0.00159627   -0.00721004    0.00947450

     Total force =     0.036217     Total SCF correction =     0.000000

     Writing output data file ./Propane.save/

     init_run     :      1.38s CPU      1.47s WALL (       1 calls)
     electrons    :     19.48s CPU     19.95s WALL (       1 calls)
     forces       :      0.88s CPU      0.93s WALL (       1 calls)

     Called by init_run:
     wfcinit      :      0.48s CPU      0.50s WALL (       1 calls)
     potinit      :      0.54s CPU      0.59s WALL (       1 calls)
     hinit0       :      0.19s CPU      0.21s WALL (       1 calls)

     Called by electrons:
     c_bands      :     10.18s CPU     10.25s WALL (      14 calls)
     sum_band     :      2.65s CPU      2.67s WALL (      14 calls)
     v_of_rho     :      5.37s CPU      5.74s WALL (      15 calls)
     mix_rho      :      1.47s CPU      1.50s WALL (      14 calls)

     Called by c_bands:
     init_us_2    :      0.19s CPU      0.20s WALL (      29 calls)
     regterg      :      9.96s CPU     10.02s WALL (      14 calls)

     Called by *egterg:
     rdiaghg      :      0.03s CPU      0.03s WALL (      44 calls)
     h_psi        :      9.18s CPU      9.24s WALL (      45 calls)
     g_psi        :      0.02s CPU      0.02s WALL (      30 calls)

     Called by h_psi:
     h_psi:calbec :      0.94s CPU      0.94s WALL (      45 calls)
     vloc_psi     :      7.41s CPU      7.47s WALL (      45 calls)
     add_vuspsi   :      0.77s CPU      0.77s WALL (      45 calls)

     General routines
     calbec       :      1.02s CPU      1.03s WALL (      49 calls)
     fft          :      3.77s CPU      3.90s WALL (     128 calls)
     ffts         :      0.40s CPU      0.40s WALL (      14 calls)
     fftw         :      6.95s CPU      7.00s WALL (     496 calls)

     Parallel routines

     PWSCF        :     21.83s CPU     22.45s WALL


   This run was terminated on:   6:49:53  24May2021            

=------------------------------------------------------------------------------=
   JOB DONE.
=------------------------------------------------------------------------------=
