
     Program PWSCF v.6.7GPU starts on 24May2021 at  6:47:55 

     This program is part of the open-source Quantum ESPRESSO suite
     for quantum simulation of materials; please cite
         "P. Giannozzi et al., J. Phys.:Condens. Matter 21 395502 (2009);
         "P. Giannozzi et al., J. Phys.:Condens. Matter 29 465901 (2017);
         "P. Giannozzi et al., J. Chem. Phys. 152 154105 (2020);
          URL http://www.quantum-espresso.org", 
     in publications or presentations arising from this work. More details at
     http://www.quantum-espresso.org/quote

     Parallel version (MPI), running on     4 processors

     MPI processes distributed on     1 nodes
     R & G space division:  proc/nbgrp/npool/nimage =       4
     Waiting for input...
     Reading input from standard input
     Message from routine read_cards :
     DEPRECATED: no units specified in CELL_PARAMETERS card

     Current dimensions of program PWSCF are:
     Max number of different atomic species (ntypx) = 10
     Max number of k-points (npk) =  40000
     Max angular momentum in pseudopotentials (lmaxx) =  3

     gamma-point specific algorithms are used

     Subspace diagonalization in iterative solution of the eigenvalue problem:
     one sub-group per band group will be used
     scalapack distributed-memory algorithm (size of sub-group:  2*  2 procs)


     Parallelization info
     --------------------
     sticks:   dense  smooth     PW     G-vecs:    dense   smooth      PW
     Min        1591    1591    398                95580    95580   11954
     Max        1594    1594    400                95582    95582   11960
     Sum        6369    6369   1597               382323   382323   47833

     Using Slab Decomposition



     bravais-lattice index     =            0
     lattice parameter (alat)  =      20.0000  a.u.
     unit-cell volume          =    8000.0000 (a.u.)^3
     number of atoms/cell      =           11
     number of atomic types    =            2
     number of electrons       =        20.00
     number of Kohn-Sham states=           10
     kinetic-energy cutoff     =      50.0000  Ry
     charge density cutoff     =     200.0000  Ry
     scf convergence threshold =      1.0E-12
     mixing beta               =       0.5000
     number of iterations used =            8  plain     mixing
     Exchange-correlation= PBE
                           (   1   4   3   4   0   0   0)

     celldm(1)=  20.000000  celldm(2)=   0.000000  celldm(3)=   0.000000
     celldm(4)=   0.000000  celldm(5)=   0.000000  celldm(6)=   0.000000

     crystal axes: (cart. coord. in units of alat)
               a(1) = (   1.000000   0.000000   0.000000 )  
               a(2) = (   0.000000   1.000000   0.000000 )  
               a(3) = (   0.000000   0.000000   1.000000 )  

     reciprocal axes: (cart. coord. in units 2 pi/alat)
               b(1) = (  1.000000  0.000000  0.000000 )  
               b(2) = (  0.000000  1.000000  0.000000 )  
               b(3) = (  0.000000  0.000000  1.000000 )  


     PseudoPot. # 1 for C  read from file:
     /home/ciga/builds/pseudo_potentials/C.upf
     MD5 check sum: d80ec9912146af6c4c1760317d1f95e9
     Pseudo is Norm-conserving + core correction, Zval =  4.0
     Generated using ONCVPSP code by D. R. Hamann
     Using radial grid of 1248 points,  4 beta functions with: 
                l(1) =   0
                l(2) =   0
                l(3) =   1
                l(4) =   1

     PseudoPot. # 2 for H  read from file:
     /home/ciga/builds/pseudo_potentials/H.upf
     MD5 check sum: 418cee52d0c413ae40802e6cc37ab9e3
     Pseudo is Norm-conserving, Zval =  1.0
     Generated using ONCVPSP code by D. R. Hamann
     Using radial grid of 1166 points,  3 beta functions with: 
                l(1) =   0
                l(2) =   0
                l(3) =   1

     atomic species   valence    mass     pseudopotential
        C              4.00    12.01070     C ( 1.00)
        H              1.00     1.00794     H ( 1.00)

     No symmetry found



   Cartesian axes

     site n.     atom                  positions (alat units)
         1           C   tau(   1) = (   0.0000000   0.0553973  -0.0000000  )
         2           C   tau(   2) = (  -0.1198181  -0.0248121   0.0000000  )
         3           C   tau(   3) = (   0.1198181  -0.0248121  -0.0000000  )
         4           H   tau(   4) = (   0.0000000   0.1176260   0.0827700  )
         5           H   tau(   5) = (  -0.0000283   0.1176638  -0.0827511  )
         6           H   tau(   6) = (  -0.2038637   0.0353568   0.0000000  )
         7           H   tau(   7) = (   0.2038637   0.0353662   0.0000000  )
         8           H   tau(   8) = (  -0.1253928  -0.0851700   0.0831479  )
         9           H   tau(   9) = (  -0.1253928  -0.0851700  -0.0831479  )
        10           H   tau(  10) = (   0.1253928  -0.0851700  -0.0831479  )
        11           H   tau(  11) = (   0.1254022  -0.0851700   0.0831479  )

     number of k points=     1
                       cart. coord. in units 2pi/alat
        k(    1) = (   0.0000000   0.0000000   0.0000000), wk =   2.0000000

     Dense  grid:   191162 G-vectors     FFT dimensions: (  96,  96,  96)

     Estimated max dynamical RAM per process >      47.56 MB

     Estimated total dynamical RAM >     190.24 MB

     Initial potential from superposition of free atoms

     starting charge   19.99979, renormalised to   20.00000

     negative rho (up, down):  7.918E-04 0.000E+00
     Starting wfcs are   20 randomized atomic wfcs

     total cpu time spent up to now is        0.8 secs

     Self-consistent Calculation

     iteration #  1     ecut=    50.00 Ry     beta= 0.50
     Davidson diagonalization with overlap
     ethr =  1.00E-02,  avg # of iterations =  2.0

     negative rho (up, down):  3.603E-04 0.000E+00

     total cpu time spent up to now is        1.5 secs

     total energy              =     -45.36197636 Ry
     estimated scf accuracy    <       1.35072119 Ry

     iteration #  2     ecut=    50.00 Ry     beta= 0.50
     Davidson diagonalization with overlap
     ethr =  6.75E-03,  avg # of iterations =  2.0

     negative rho (up, down):  1.677E-04 0.000E+00

     total cpu time spent up to now is        2.2 secs

     total energy              =     -45.60001624 Ry
     estimated scf accuracy    <       0.09812479 Ry

     iteration #  3     ecut=    50.00 Ry     beta= 0.50
     Davidson diagonalization with overlap
     ethr =  4.91E-04,  avg # of iterations =  1.0

     negative rho (up, down):  1.020E-05 0.000E+00

     total cpu time spent up to now is        2.7 secs

     total energy              =     -45.59321658 Ry
     estimated scf accuracy    <       0.02273472 Ry

     iteration #  4     ecut=    50.00 Ry     beta= 0.50
     Davidson diagonalization with overlap
     ethr =  1.14E-04,  avg # of iterations =  2.0

     negative rho (up, down):  5.584E-06 0.000E+00

     total cpu time spent up to now is        3.4 secs

     total energy              =     -45.59549796 Ry
     estimated scf accuracy    <       0.00332883 Ry

     iteration #  5     ecut=    50.00 Ry     beta= 0.50
     Davidson diagonalization with overlap
     ethr =  1.66E-05,  avg # of iterations =  2.0

     negative rho (up, down):  3.112E-07 0.000E+00

     total cpu time spent up to now is        4.1 secs

     total energy              =     -45.59639995 Ry
     estimated scf accuracy    <       0.00102748 Ry

     iteration #  6     ecut=    50.00 Ry     beta= 0.50
     Davidson diagonalization with overlap
     ethr =  5.14E-06,  avg # of iterations =  2.0

     total cpu time spent up to now is        4.8 secs

     total energy              =     -45.59665831 Ry
     estimated scf accuracy    <       0.00007495 Ry

     iteration #  7     ecut=    50.00 Ry     beta= 0.50
     Davidson diagonalization with overlap
     ethr =  3.75E-07,  avg # of iterations =  2.0

     total cpu time spent up to now is        5.5 secs

     total energy              =     -45.59667526 Ry
     estimated scf accuracy    <       0.00000070 Ry

     iteration #  8     ecut=    50.00 Ry     beta= 0.50
     Davidson diagonalization with overlap
     ethr =  3.50E-09,  avg # of iterations =  3.0

     total cpu time spent up to now is        6.2 secs

     total energy              =     -45.59667553 Ry
     estimated scf accuracy    <       0.00000007 Ry

     iteration #  9     ecut=    50.00 Ry     beta= 0.50
     Davidson diagonalization with overlap
     ethr =  3.43E-10,  avg # of iterations =  3.0

     total cpu time spent up to now is        6.9 secs

     total energy              =     -45.59667554 Ry
     estimated scf accuracy    <          8.6E-09 Ry

     iteration # 10     ecut=    50.00 Ry     beta= 0.50
     Davidson diagonalization with overlap
     ethr =  4.30E-11,  avg # of iterations =  2.0

     total cpu time spent up to now is        7.6 secs

     total energy              =     -45.59667554 Ry
     estimated scf accuracy    <          3.4E-09 Ry

     iteration # 11     ecut=    50.00 Ry     beta= 0.50
     Davidson diagonalization with overlap
     ethr =  1.72E-11,  avg # of iterations =  2.0

     total cpu time spent up to now is        8.2 secs

     total energy              =     -45.59667554 Ry
     estimated scf accuracy    <          6.7E-10 Ry

     iteration # 12     ecut=    50.00 Ry     beta= 0.50
     Davidson diagonalization with overlap
     ethr =  3.36E-12,  avg # of iterations =  2.0

     total cpu time spent up to now is        8.9 secs

     total energy              =     -45.59667554 Ry
     estimated scf accuracy    <          1.7E-11 Ry

     iteration # 13     ecut=    50.00 Ry     beta= 0.50
     Davidson diagonalization with overlap
     ethr =  1.00E-13,  avg # of iterations =  3.0

     total cpu time spent up to now is        9.6 secs

     total energy              =     -45.59667554 Ry
     estimated scf accuracy    <          4.5E-12 Ry

     iteration # 14     ecut=    50.00 Ry     beta= 0.50
     Davidson diagonalization with overlap
     ethr =  1.00E-13,  avg # of iterations =  1.0

     total cpu time spent up to now is       10.1 secs

     End of self-consistent calculation

          k = 0.0000 0.0000 0.0000 ( 23917 PWs)   bands (ev):

   -18.9684 -16.4009 -13.9464 -10.7721 -10.2215  -9.3078  -8.8081  -7.7135
    -7.6429  -7.4019

     highest occupied level (ev):    -7.4019

!    total energy              =     -45.59667554 Ry
     estimated scf accuracy    <          1.3E-13 Ry

     The total energy is the sum of the following terms:
     one-electron contribution =    -148.19139580 Ry
     hartree contribution      =      76.67621919 Ry
     xc contribution           =     -18.63014048 Ry
     ewald contribution        =      44.54864154 Ry

     convergence has been achieved in  14 iterations

     Forces acting on atoms (cartesian axes, Ry/au):

     atom    1 type  1   force =    -0.00005169   -0.01291065   -0.00001076
     atom    2 type  1   force =    -0.00309886    0.01631026    0.00000380
     atom    3 type  1   force =     0.00315292    0.01639674   -0.00004511
     atom    4 type  2   force =    -0.00000093    0.00335873    0.00476857
     atom    5 type  2   force =     0.00006024    0.00326808   -0.00470268
     atom    6 type  2   force =    -0.00663774    0.00207568    0.00000047
     atom    7 type  2   force =     0.00658956    0.00202562   -0.00000788
     atom    8 type  2   force =     0.00156367   -0.00763657    0.01013274
     atom    9 type  2   force =     0.00156370   -0.00763479   -0.01013505
     atom   10 type  2   force =    -0.00155544   -0.00763187   -0.01013459
     atom   11 type  2   force =    -0.00158543   -0.00762124    0.01013050

     Total force =     0.039209     Total SCF correction =     0.000000

     Writing output data file ./Propane.save/

     init_run     :      0.69s CPU      0.73s WALL (       1 calls)
     electrons    :      9.10s CPU      9.35s WALL (       1 calls)
     forces       :      0.46s CPU      0.48s WALL (       1 calls)

     Called by init_run:
     wfcinit      :      0.22s CPU      0.23s WALL (       1 calls)
     potinit      :      0.30s CPU      0.32s WALL (       1 calls)
     hinit0       :      0.12s CPU      0.13s WALL (       1 calls)

     Called by electrons:
     c_bands      :      4.52s CPU      4.56s WALL (      14 calls)
     sum_band     :      1.26s CPU      1.28s WALL (      14 calls)
     v_of_rho     :      2.76s CPU      2.94s WALL (      15 calls)
     mix_rho      :      0.65s CPU      0.66s WALL (      14 calls)

     Called by c_bands:
     init_us_2    :      0.09s CPU      0.10s WALL (      29 calls)
     regterg      :      4.41s CPU      4.44s WALL (      14 calls)

     Called by *egterg:
     rdiaghg      :      0.02s CPU      0.02s WALL (      43 calls)
     h_psi        :      4.12s CPU      4.15s WALL (      44 calls)
     g_psi        :      0.01s CPU      0.01s WALL (      29 calls)

     Called by h_psi:
     h_psi:calbec :      0.46s CPU      0.46s WALL (      44 calls)
     vloc_psi     :      3.27s CPU      3.30s WALL (      44 calls)
     add_vuspsi   :      0.37s CPU      0.37s WALL (      44 calls)

     General routines
     calbec       :      0.50s CPU      0.50s WALL (      48 calls)
     fft          :      1.89s CPU      1.94s WALL (     128 calls)
     ffts         :      0.20s CPU      0.20s WALL (      14 calls)
     fftw         :      3.00s CPU      3.03s WALL (     488 calls)

     Parallel routines

     PWSCF        :     10.33s CPU     10.66s WALL


   This run was terminated on:   6:48: 6  24May2021            

=------------------------------------------------------------------------------=
   JOB DONE.
=------------------------------------------------------------------------------=
