
     Program PWSCF v.6.7GPU starts on 24May2021 at  6:50:18 

     This program is part of the open-source Quantum ESPRESSO suite
     for quantum simulation of materials; please cite
         "P. Giannozzi et al., J. Phys.:Condens. Matter 21 395502 (2009);
         "P. Giannozzi et al., J. Phys.:Condens. Matter 29 465901 (2017);
         "P. Giannozzi et al., J. Chem. Phys. 152 154105 (2020);
          URL http://www.quantum-espresso.org", 
     in publications or presentations arising from this work. More details at
     http://www.quantum-espresso.org/quote

     Parallel version (MPI), running on     4 processors

     MPI processes distributed on     1 nodes
     R & G space division:  proc/nbgrp/npool/nimage =       4
     Waiting for input...
     Reading input from standard input
     Message from routine read_cards :
     DEPRECATED: no units specified in CELL_PARAMETERS card

     Current dimensions of program PWSCF are:
     Max number of different atomic species (ntypx) = 10
     Max number of k-points (npk) =  40000
     Max angular momentum in pseudopotentials (lmaxx) =  3

     gamma-point specific algorithms are used

     Subspace diagonalization in iterative solution of the eigenvalue problem:
     one sub-group per band group will be used
     scalapack distributed-memory algorithm (size of sub-group:  2*  2 procs)


     Parallelization info
     --------------------
     sticks:   dense  smooth     PW     G-vecs:    dense   smooth      PW
     Min        2862    2862    716               230578   230578   28824
     Max        2863    2863    718               230586   230586   28830
     Sum       11449   11449   2869               922329   922329  115313

     Using Slab Decomposition



     bravais-lattice index     =            0
     lattice parameter (alat)  =      20.0000  a.u.
     unit-cell volume          =    8000.0000 (a.u.)^3
     number of atoms/cell      =           11
     number of atomic types    =            2
     number of electrons       =        20.00
     number of Kohn-Sham states=           10
     kinetic-energy cutoff     =      90.0000  Ry
     charge density cutoff     =     360.0000  Ry
     scf convergence threshold =      1.0E-12
     mixing beta               =       0.5000
     number of iterations used =            8  plain     mixing
     Exchange-correlation= PBE
                           (   1   4   3   4   0   0   0)

     celldm(1)=  20.000000  celldm(2)=   0.000000  celldm(3)=   0.000000
     celldm(4)=   0.000000  celldm(5)=   0.000000  celldm(6)=   0.000000

     crystal axes: (cart. coord. in units of alat)
               a(1) = (   1.000000   0.000000   0.000000 )  
               a(2) = (   0.000000   1.000000   0.000000 )  
               a(3) = (   0.000000   0.000000   1.000000 )  

     reciprocal axes: (cart. coord. in units 2 pi/alat)
               b(1) = (  1.000000  0.000000  0.000000 )  
               b(2) = (  0.000000  1.000000  0.000000 )  
               b(3) = (  0.000000  0.000000  1.000000 )  


     PseudoPot. # 1 for C  read from file:
     /home/ciga/builds/pseudo_potentials/C.upf
     MD5 check sum: d80ec9912146af6c4c1760317d1f95e9
     Pseudo is Norm-conserving + core correction, Zval =  4.0
     Generated using ONCVPSP code by D. R. Hamann
     Using radial grid of 1248 points,  4 beta functions with: 
                l(1) =   0
                l(2) =   0
                l(3) =   1
                l(4) =   1

     PseudoPot. # 2 for H  read from file:
     /home/ciga/builds/pseudo_potentials/H.upf
     MD5 check sum: 418cee52d0c413ae40802e6cc37ab9e3
     Pseudo is Norm-conserving, Zval =  1.0
     Generated using ONCVPSP code by D. R. Hamann
     Using radial grid of 1166 points,  3 beta functions with: 
                l(1) =   0
                l(2) =   0
                l(3) =   1

     atomic species   valence    mass     pseudopotential
        C              4.00    12.01070     C ( 1.00)
        H              1.00     1.00794     H ( 1.00)

     No symmetry found



   Cartesian axes

     site n.     atom                  positions (alat units)
         1           C   tau(   1) = (   0.0000000   0.0553973  -0.0000000  )
         2           C   tau(   2) = (  -0.1198181  -0.0248121   0.0000000  )
         3           C   tau(   3) = (   0.1198181  -0.0248121  -0.0000000  )
         4           H   tau(   4) = (   0.0000000   0.1176260   0.0827700  )
         5           H   tau(   5) = (  -0.0000283   0.1176638  -0.0827511  )
         6           H   tau(   6) = (  -0.2038637   0.0353568   0.0000000  )
         7           H   tau(   7) = (   0.2038637   0.0353662   0.0000000  )
         8           H   tau(   8) = (  -0.1253928  -0.0851700   0.0831479  )
         9           H   tau(   9) = (  -0.1253928  -0.0851700  -0.0831479  )
        10           H   tau(  10) = (   0.1253928  -0.0851700  -0.0831479  )
        11           H   tau(  11) = (   0.1254022  -0.0851700   0.0831479  )

     number of k points=     1
                       cart. coord. in units 2pi/alat
        k(    1) = (   0.0000000   0.0000000   0.0000000), wk =   2.0000000

     Dense  grid:   461165 G-vectors     FFT dimensions: ( 125, 125, 125)

     Estimated max dynamical RAM per process >     111.75 MB

     Estimated total dynamical RAM >     446.99 MB

     Initial potential from superposition of free atoms

     starting charge   19.99979, renormalised to   20.00000

     negative rho (up, down):  1.131E-05 0.000E+00
     Starting wfcs are   20 randomized atomic wfcs

     total cpu time spent up to now is        1.8 secs

     Self-consistent Calculation

     iteration #  1     ecut=    90.00 Ry     beta= 0.50
     Davidson diagonalization with overlap
     ethr =  1.00E-02,  avg # of iterations =  2.0

     negative rho (up, down):  8.979E-07 0.000E+00

     total cpu time spent up to now is        3.5 secs

     total energy              =     -45.39933252 Ry
     estimated scf accuracy    <       1.38130276 Ry

     iteration #  2     ecut=    90.00 Ry     beta= 0.50
     Davidson diagonalization with overlap
     ethr =  6.91E-03,  avg # of iterations =  2.0

     negative rho (up, down):  1.600E-07 0.000E+00

     total cpu time spent up to now is        5.2 secs

     total energy              =     -45.64636535 Ry
     estimated scf accuracy    <       0.09929440 Ry

     iteration #  3     ecut=    90.00 Ry     beta= 0.50
     Davidson diagonalization with overlap
     ethr =  4.96E-04,  avg # of iterations =  1.0

     total cpu time spent up to now is        6.6 secs

     total energy              =     -45.63953752 Ry
     estimated scf accuracy    <       0.02319508 Ry

     iteration #  4     ecut=    90.00 Ry     beta= 0.50
     Davidson diagonalization with overlap
     ethr =  1.16E-04,  avg # of iterations =  2.0

     total cpu time spent up to now is        8.3 secs

     total energy              =     -45.64185843 Ry
     estimated scf accuracy    <       0.00347743 Ry

     iteration #  5     ecut=    90.00 Ry     beta= 0.50
     Davidson diagonalization with overlap
     ethr =  1.74E-05,  avg # of iterations =  2.0

     total cpu time spent up to now is       10.0 secs

     total energy              =     -45.64280462 Ry
     estimated scf accuracy    <       0.00109437 Ry

     iteration #  6     ecut=    90.00 Ry     beta= 0.50
     Davidson diagonalization with overlap
     ethr =  5.47E-06,  avg # of iterations =  2.0

     total cpu time spent up to now is       11.8 secs

     total energy              =     -45.64308032 Ry
     estimated scf accuracy    <       0.00007682 Ry

     iteration #  7     ecut=    90.00 Ry     beta= 0.50
     Davidson diagonalization with overlap
     ethr =  3.84E-07,  avg # of iterations =  2.0

     total cpu time spent up to now is       13.5 secs

     total energy              =     -45.64309798 Ry
     estimated scf accuracy    <       0.00000070 Ry

     iteration #  8     ecut=    90.00 Ry     beta= 0.50
     Davidson diagonalization with overlap
     ethr =  3.51E-09,  avg # of iterations =  3.0

     total cpu time spent up to now is       15.4 secs

     total energy              =     -45.64309829 Ry
     estimated scf accuracy    <       0.00000009 Ry

     iteration #  9     ecut=    90.00 Ry     beta= 0.50
     Davidson diagonalization with overlap
     ethr =  4.59E-10,  avg # of iterations =  3.0

     total cpu time spent up to now is       17.3 secs

     total energy              =     -45.64309830 Ry
     estimated scf accuracy    <          9.8E-09 Ry

     iteration # 10     ecut=    90.00 Ry     beta= 0.50
     Davidson diagonalization with overlap
     ethr =  4.92E-11,  avg # of iterations =  3.0

     total cpu time spent up to now is       19.1 secs

     total energy              =     -45.64309831 Ry
     estimated scf accuracy    <          1.2E-09 Ry

     iteration # 11     ecut=    90.00 Ry     beta= 0.50
     Davidson diagonalization with overlap
     ethr =  6.22E-12,  avg # of iterations =  2.0

     total cpu time spent up to now is       20.9 secs

     total energy              =     -45.64309831 Ry
     estimated scf accuracy    <          8.0E-10 Ry

     iteration # 12     ecut=    90.00 Ry     beta= 0.50
     Davidson diagonalization with overlap
     ethr =  4.02E-12,  avg # of iterations =  2.0

     total cpu time spent up to now is       22.7 secs

     total energy              =     -45.64309831 Ry
     estimated scf accuracy    <          5.3E-12 Ry

     iteration # 13     ecut=    90.00 Ry     beta= 0.50
     Davidson diagonalization with overlap
     ethr =  1.00E-13,  avg # of iterations =  4.0

     total cpu time spent up to now is       24.8 secs

     total energy              =     -45.64309831 Ry
     estimated scf accuracy    <          1.2E-11 Ry

     iteration # 14     ecut=    90.00 Ry     beta= 0.50
     Davidson diagonalization with overlap
     ethr =  1.00E-13,  avg # of iterations =  2.0

     total cpu time spent up to now is       26.4 secs

     End of self-consistent calculation

          k = 0.0000 0.0000 0.0000 ( 57657 PWs)   bands (ev):

   -18.9343 -16.3721 -13.9250 -10.7707 -10.2197  -9.3076  -8.8109  -7.7155
    -7.6440  -7.4069

     highest occupied level (ev):    -7.4069

!    total energy              =     -45.64309831 Ry
     estimated scf accuracy    <          4.0E-13 Ry

     The total energy is the sum of the following terms:
     one-electron contribution =    -148.27197414 Ry
     hartree contribution      =      76.72857838 Ry
     xc contribution           =     -18.64834411 Ry
     ewald contribution        =      44.54864156 Ry

     convergence has been achieved in  14 iterations

     Forces acting on atoms (cartesian axes, Ry/au):

     atom    1 type  1   force =    -0.00005186   -0.01028441   -0.00001180
     atom    2 type  1   force =    -0.00466289    0.01513368    0.00000378
     atom    3 type  1   force =     0.00471774    0.01522095   -0.00004504
     atom    4 type  2   force =    -0.00000091    0.00294103    0.00402885
     atom    5 type  2   force =     0.00006052    0.00284926   -0.00396189
     atom    6 type  2   force =    -0.00593336    0.00151495    0.00000047
     atom    7 type  2   force =     0.00588425    0.00146417   -0.00000788
     atom    8 type  2   force =     0.00157518   -0.00721539    0.00946321
     atom    9 type  2   force =     0.00157521   -0.00721359   -0.00946553
     atom   10 type  2   force =    -0.00156693   -0.00721065   -0.00946507
     atom   11 type  2   force =    -0.00159696   -0.00720000    0.00946089

     Total force =     0.036188     Total SCF correction =     0.000000

     Writing output data file ./Propane.save/

     init_run     :      1.60s CPU      1.73s WALL (       1 calls)
     electrons    :     24.16s CPU     24.63s WALL (       1 calls)
     forces       :      1.06s CPU      1.11s WALL (       1 calls)

     Called by init_run:
     wfcinit      :      0.61s CPU      0.62s WALL (       1 calls)
     potinit      :      0.58s CPU      0.67s WALL (       1 calls)
     hinit0       :      0.20s CPU      0.22s WALL (       1 calls)

     Called by electrons:
     c_bands      :     13.24s CPU     13.33s WALL (      14 calls)
     sum_band     :      3.14s CPU      3.16s WALL (      14 calls)
     v_of_rho     :      6.25s CPU      6.64s WALL (      15 calls)
     mix_rho      :      1.73s CPU      1.77s WALL (      14 calls)

     Called by c_bands:
     init_us_2    :      0.23s CPU      0.24s WALL (      29 calls)
     regterg      :     12.97s CPU     13.06s WALL (      14 calls)

     Called by *egterg:
     rdiaghg      :      0.03s CPU      0.03s WALL (      46 calls)
     h_psi        :     11.94s CPU     12.03s WALL (      47 calls)
     g_psi        :      0.03s CPU      0.03s WALL (      32 calls)

     Called by h_psi:
     h_psi:calbec :      1.18s CPU      1.18s WALL (      47 calls)
     vloc_psi     :      9.74s CPU      9.82s WALL (      47 calls)
     add_vuspsi   :      0.95s CPU      0.95s WALL (      47 calls)

     General routines
     calbec       :      1.29s CPU      1.29s WALL (      51 calls)
     fft          :      4.48s CPU      4.56s WALL (     128 calls)
     ffts         :      0.50s CPU      0.50s WALL (      14 calls)
     fftw         :      9.18s CPU      9.25s WALL (     514 calls)

     Parallel routines

     PWSCF        :     26.90s CPU     27.58s WALL


   This run was terminated on:   6:50:46  24May2021            

=------------------------------------------------------------------------------=
   JOB DONE.
=------------------------------------------------------------------------------=
