
     Program PWSCF v.6.7GPU starts on 24May2021 at  6:48:30 

     This program is part of the open-source Quantum ESPRESSO suite
     for quantum simulation of materials; please cite
         "P. Giannozzi et al., J. Phys.:Condens. Matter 21 395502 (2009);
         "P. Giannozzi et al., J. Phys.:Condens. Matter 29 465901 (2017);
         "P. Giannozzi et al., J. Chem. Phys. 152 154105 (2020);
          URL http://www.quantum-espresso.org", 
     in publications or presentations arising from this work. More details at
     http://www.quantum-espresso.org/quote

     Parallel version (MPI), running on     4 processors

     MPI processes distributed on     1 nodes
     R & G space division:  proc/nbgrp/npool/nimage =       4
     Waiting for input...
     Reading input from standard input
     Message from routine read_cards :
     DEPRECATED: no units specified in CELL_PARAMETERS card

     Current dimensions of program PWSCF are:
     Max number of different atomic species (ntypx) = 10
     Max number of k-points (npk) =  40000
     Max angular momentum in pseudopotentials (lmaxx) =  3

     gamma-point specific algorithms are used

     Subspace diagonalization in iterative solution of the eigenvalue problem:
     one sub-group per band group will be used
     scalapack distributed-memory algorithm (size of sub-group:  2*  2 procs)


     Parallelization info
     --------------------
     sticks:   dense  smooth     PW     G-vecs:    dense   smooth      PW
     Min        2069    2069    518               141623   141623   17686
     Max        2072    2072    520               141628   141628   17689
     Sum        8285    8285   2077               566507   566507   70751

     Using Slab Decomposition



     bravais-lattice index     =            0
     lattice parameter (alat)  =      20.0000  a.u.
     unit-cell volume          =    8000.0000 (a.u.)^3
     number of atoms/cell      =           11
     number of atomic types    =            2
     number of electrons       =        20.00
     number of Kohn-Sham states=           10
     kinetic-energy cutoff     =      65.0000  Ry
     charge density cutoff     =     260.0000  Ry
     scf convergence threshold =      1.0E-12
     mixing beta               =       0.5000
     number of iterations used =            8  plain     mixing
     Exchange-correlation= PBE
                           (   1   4   3   4   0   0   0)

     celldm(1)=  20.000000  celldm(2)=   0.000000  celldm(3)=   0.000000
     celldm(4)=   0.000000  celldm(5)=   0.000000  celldm(6)=   0.000000

     crystal axes: (cart. coord. in units of alat)
               a(1) = (   1.000000   0.000000   0.000000 )  
               a(2) = (   0.000000   1.000000   0.000000 )  
               a(3) = (   0.000000   0.000000   1.000000 )  

     reciprocal axes: (cart. coord. in units 2 pi/alat)
               b(1) = (  1.000000  0.000000  0.000000 )  
               b(2) = (  0.000000  1.000000  0.000000 )  
               b(3) = (  0.000000  0.000000  1.000000 )  


     PseudoPot. # 1 for C  read from file:
     /home/ciga/builds/pseudo_potentials/C.upf
     MD5 check sum: d80ec9912146af6c4c1760317d1f95e9
     Pseudo is Norm-conserving + core correction, Zval =  4.0
     Generated using ONCVPSP code by D. R. Hamann
     Using radial grid of 1248 points,  4 beta functions with: 
                l(1) =   0
                l(2) =   0
                l(3) =   1
                l(4) =   1

     PseudoPot. # 2 for H  read from file:
     /home/ciga/builds/pseudo_potentials/H.upf
     MD5 check sum: 418cee52d0c413ae40802e6cc37ab9e3
     Pseudo is Norm-conserving, Zval =  1.0
     Generated using ONCVPSP code by D. R. Hamann
     Using radial grid of 1166 points,  3 beta functions with: 
                l(1) =   0
                l(2) =   0
                l(3) =   1

     atomic species   valence    mass     pseudopotential
        C              4.00    12.01070     C ( 1.00)
        H              1.00     1.00794     H ( 1.00)

     No symmetry found



   Cartesian axes

     site n.     atom                  positions (alat units)
         1           C   tau(   1) = (   0.0000000   0.0553973  -0.0000000  )
         2           C   tau(   2) = (  -0.1198181  -0.0248121   0.0000000  )
         3           C   tau(   3) = (   0.1198181  -0.0248121  -0.0000000  )
         4           H   tau(   4) = (   0.0000000   0.1176260   0.0827700  )
         5           H   tau(   5) = (  -0.0000283   0.1176638  -0.0827511  )
         6           H   tau(   6) = (  -0.2038637   0.0353568   0.0000000  )
         7           H   tau(   7) = (   0.2038637   0.0353662   0.0000000  )
         8           H   tau(   8) = (  -0.1253928  -0.0851700   0.0831479  )
         9           H   tau(   9) = (  -0.1253928  -0.0851700  -0.0831479  )
        10           H   tau(  10) = (   0.1253928  -0.0851700  -0.0831479  )
        11           H   tau(  11) = (   0.1254022  -0.0851700   0.0831479  )

     number of k points=     1
                       cart. coord. in units 2pi/alat
        k(    1) = (   0.0000000   0.0000000   0.0000000), wk =   2.0000000

     Dense  grid:   283254 G-vectors     FFT dimensions: ( 108, 108, 108)

     Estimated max dynamical RAM per process >      69.37 MB

     Estimated total dynamical RAM >     277.48 MB

     Initial potential from superposition of free atoms

     starting charge   19.99979, renormalised to   20.00000

     negative rho (up, down):  2.095E-04 0.000E+00
     Starting wfcs are   20 randomized atomic wfcs

     total cpu time spent up to now is        1.2 secs

     Self-consistent Calculation

     iteration #  1     ecut=    65.00 Ry     beta= 0.50
     Davidson diagonalization with overlap
     ethr =  1.00E-02,  avg # of iterations =  2.0

     negative rho (up, down):  8.380E-05 0.000E+00

     total cpu time spent up to now is        2.4 secs

     total energy              =     -45.39414896 Ry
     estimated scf accuracy    <       1.37883483 Ry

     iteration #  2     ecut=    65.00 Ry     beta= 0.50
     Davidson diagonalization with overlap
     ethr =  6.89E-03,  avg # of iterations =  2.0

     negative rho (up, down):  3.611E-05 0.000E+00

     total cpu time spent up to now is        3.5 secs

     total energy              =     -45.64098304 Ry
     estimated scf accuracy    <       0.09936633 Ry

     iteration #  3     ecut=    65.00 Ry     beta= 0.50
     Davidson diagonalization with overlap
     ethr =  4.97E-04,  avg # of iterations =  1.0

     negative rho (up, down):  2.540E-06 0.000E+00

     total cpu time spent up to now is        4.5 secs

     total energy              =     -45.63408017 Ry
     estimated scf accuracy    <       0.02325102 Ry

     iteration #  4     ecut=    65.00 Ry     beta= 0.50
     Davidson diagonalization with overlap
     ethr =  1.16E-04,  avg # of iterations =  2.0

     negative rho (up, down):  1.303E-06 0.000E+00

     total cpu time spent up to now is        5.6 secs

     total energy              =     -45.63640919 Ry
     estimated scf accuracy    <       0.00351062 Ry

     iteration #  5     ecut=    65.00 Ry     beta= 0.50
     Davidson diagonalization with overlap
     ethr =  1.76E-05,  avg # of iterations =  2.0

     negative rho (up, down):  1.500E-07 0.000E+00

     total cpu time spent up to now is        6.7 secs

     total energy              =     -45.63736443 Ry
     estimated scf accuracy    <       0.00107870 Ry

     iteration #  6     ecut=    65.00 Ry     beta= 0.50
     Davidson diagonalization with overlap
     ethr =  5.39E-06,  avg # of iterations =  2.0

     total cpu time spent up to now is        7.9 secs

     total energy              =     -45.63763583 Ry
     estimated scf accuracy    <       0.00007704 Ry

     iteration #  7     ecut=    65.00 Ry     beta= 0.50
     Davidson diagonalization with overlap
     ethr =  3.85E-07,  avg # of iterations =  2.0

     total cpu time spent up to now is        9.1 secs

     total energy              =     -45.63765349 Ry
     estimated scf accuracy    <       0.00000071 Ry

     iteration #  8     ecut=    65.00 Ry     beta= 0.50
     Davidson diagonalization with overlap
     ethr =  3.56E-09,  avg # of iterations =  3.0

     total cpu time spent up to now is       10.3 secs

     total energy              =     -45.63765378 Ry
     estimated scf accuracy    <       0.00000009 Ry

     iteration #  9     ecut=    65.00 Ry     beta= 0.50
     Davidson diagonalization with overlap
     ethr =  4.27E-10,  avg # of iterations =  3.0

     total cpu time spent up to now is       11.5 secs

     total energy              =     -45.63765379 Ry
     estimated scf accuracy    <          7.5E-09 Ry

     iteration # 10     ecut=    65.00 Ry     beta= 0.50
     Davidson diagonalization with overlap
     ethr =  3.75E-11,  avg # of iterations =  2.0

     total cpu time spent up to now is       12.7 secs

     total energy              =     -45.63765379 Ry
     estimated scf accuracy    <          7.1E-10 Ry

     iteration # 11     ecut=    65.00 Ry     beta= 0.50
     Davidson diagonalization with overlap
     ethr =  3.56E-12,  avg # of iterations =  3.0

     total cpu time spent up to now is       14.0 secs

     total energy              =     -45.63765379 Ry
     estimated scf accuracy    <          9.8E-10 Ry

     iteration # 12     ecut=    65.00 Ry     beta= 0.50
     Davidson diagonalization with overlap
     ethr =  3.56E-12,  avg # of iterations =  2.0

     total cpu time spent up to now is       15.2 secs

     total energy              =     -45.63765379 Ry
     estimated scf accuracy    <          2.7E-12 Ry

     iteration # 13     ecut=    65.00 Ry     beta= 0.50
     Davidson diagonalization with overlap
     ethr =  1.00E-13,  avg # of iterations =  3.0

     total cpu time spent up to now is       16.4 secs

     total energy              =     -45.63765379 Ry
     estimated scf accuracy    <          6.9E-12 Ry

     iteration # 14     ecut=    65.00 Ry     beta= 0.50
     Davidson diagonalization with overlap
     ethr =  1.00E-13,  avg # of iterations =  2.0

     total cpu time spent up to now is       17.3 secs

     End of self-consistent calculation

          k = 0.0000 0.0000 0.0000 ( 35376 PWs)   bands (ev):

   -18.9388 -16.3759 -13.9278 -10.7714 -10.2204  -9.3079  -8.8110  -7.7156
    -7.6437  -7.4069

     highest occupied level (ev):    -7.4069

!    total energy              =     -45.63765379 Ry
     estimated scf accuracy    <          1.6E-13 Ry

     The total energy is the sum of the following terms:
     one-electron contribution =    -148.26257191 Ry
     hartree contribution      =      76.72219609 Ry
     xc contribution           =     -18.64591952 Ry
     ewald contribution        =      44.54864155 Ry

     convergence has been achieved in  14 iterations

     Forces acting on atoms (cartesian axes, Ry/au):

     atom    1 type  1   force =    -0.00005171   -0.01043277   -0.00001194
     atom    2 type  1   force =    -0.00455525    0.01519431    0.00000379
     atom    3 type  1   force =     0.00460995    0.01528158   -0.00004506
     atom    4 type  2   force =    -0.00000090    0.00322189    0.00438617
     atom    5 type  2   force =     0.00006049    0.00313013   -0.00431903
     atom    6 type  2   force =    -0.00630707    0.00176044    0.00000047
     atom    7 type  2   force =     0.00625794    0.00170968   -0.00000788
     atom    8 type  2   force =     0.00154594   -0.00747180    0.00981148
     atom    9 type  2   force =     0.00154598   -0.00747000   -0.00981380
     atom   10 type  2   force =    -0.00153768   -0.00746706   -0.00981334
     atom   11 type  2   force =    -0.00156769   -0.00745639    0.00980913

     Total force =     0.037094     Total SCF correction =     0.000000

     Writing output data file ./Propane.save/

     init_run     :      1.08s CPU      1.15s WALL (       1 calls)
     electrons    :     15.74s CPU     16.12s WALL (       1 calls)
     forces       :      0.71s CPU      0.72s WALL (       1 calls)

     Called by init_run:
     wfcinit      :      0.40s CPU      0.41s WALL (       1 calls)
     potinit      :      0.43s CPU      0.46s WALL (       1 calls)
     hinit0       :      0.17s CPU      0.18s WALL (       1 calls)

     Called by electrons:
     c_bands      :      8.49s CPU      8.54s WALL (      14 calls)
     sum_band     :      2.14s CPU      2.16s WALL (      14 calls)
     v_of_rho     :      4.12s CPU      4.45s WALL (      15 calls)
     mix_rho      :      1.11s CPU      1.12s WALL (      14 calls)

     Called by c_bands:
     init_us_2    :      0.13s CPU      0.14s WALL (      29 calls)
     regterg      :      8.32s CPU      8.37s WALL (      14 calls)

     Called by *egterg:
     rdiaghg      :      0.03s CPU      0.03s WALL (      45 calls)
     h_psi        :      7.85s CPU      7.90s WALL (      46 calls)
     g_psi        :      0.02s CPU      0.02s WALL (      31 calls)

     Called by h_psi:
     h_psi:calbec :      0.72s CPU      0.72s WALL (      46 calls)
     vloc_psi     :      6.52s CPU      6.57s WALL (      46 calls)
     add_vuspsi   :      0.56s CPU      0.56s WALL (      46 calls)

     General routines
     calbec       :      0.78s CPU      0.79s WALL (      50 calls)
     fft          :      3.07s CPU      3.13s WALL (     128 calls)
     ffts         :      0.35s CPU      0.35s WALL (      14 calls)
     fftw         :      6.34s CPU      6.38s WALL (     498 calls)

     Parallel routines

     PWSCF        :     17.60s CPU     18.09s WALL


   This run was terminated on:   6:48:48  24May2021            

=------------------------------------------------------------------------------=
   JOB DONE.
=------------------------------------------------------------------------------=
