
     Program PWSCF v.6.7GPU starts on 24May2021 at  6:49: 9 

     This program is part of the open-source Quantum ESPRESSO suite
     for quantum simulation of materials; please cite
         "P. Giannozzi et al., J. Phys.:Condens. Matter 21 395502 (2009);
         "P. Giannozzi et al., J. Phys.:Condens. Matter 29 465901 (2017);
         "P. Giannozzi et al., J. Chem. Phys. 152 154105 (2020);
          URL http://www.quantum-espresso.org", 
     in publications or presentations arising from this work. More details at
     http://www.quantum-espresso.org/quote

     Parallel version (MPI), running on     4 processors

     MPI processes distributed on     1 nodes
     R & G space division:  proc/nbgrp/npool/nimage =       4
     Waiting for input...
     Reading input from standard input
     Message from routine read_cards :
     DEPRECATED: no units specified in CELL_PARAMETERS card

     Current dimensions of program PWSCF are:
     Max number of different atomic species (ntypx) = 10
     Max number of k-points (npk) =  40000
     Max angular momentum in pseudopotentials (lmaxx) =  3

     gamma-point specific algorithms are used

     Subspace diagonalization in iterative solution of the eigenvalue problem:
     one sub-group per band group will be used
     scalapack distributed-memory algorithm (size of sub-group:  2*  2 procs)


     Parallelization info
     --------------------
     sticks:   dense  smooth     PW     G-vecs:    dense   smooth      PW
     Min        2386    2386    595               175366   175366   21912
     Max        2388    2388    598               175372   175372   21918
     Sum        9549    9549   2385               701475   701475   87655

     Using Slab Decomposition



     bravais-lattice index     =            0
     lattice parameter (alat)  =      20.0000  a.u.
     unit-cell volume          =    8000.0000 (a.u.)^3
     number of atoms/cell      =           11
     number of atomic types    =            2
     number of electrons       =        20.00
     number of Kohn-Sham states=           10
     kinetic-energy cutoff     =      75.0000  Ry
     charge density cutoff     =     300.0000  Ry
     scf convergence threshold =      1.0E-12
     mixing beta               =       0.5000
     number of iterations used =            8  plain     mixing
     Exchange-correlation= PBE
                           (   1   4   3   4   0   0   0)

     celldm(1)=  20.000000  celldm(2)=   0.000000  celldm(3)=   0.000000
     celldm(4)=   0.000000  celldm(5)=   0.000000  celldm(6)=   0.000000

     crystal axes: (cart. coord. in units of alat)
               a(1) = (   1.000000   0.000000   0.000000 )  
               a(2) = (   0.000000   1.000000   0.000000 )  
               a(3) = (   0.000000   0.000000   1.000000 )  

     reciprocal axes: (cart. coord. in units 2 pi/alat)
               b(1) = (  1.000000  0.000000  0.000000 )  
               b(2) = (  0.000000  1.000000  0.000000 )  
               b(3) = (  0.000000  0.000000  1.000000 )  


     PseudoPot. # 1 for C  read from file:
     /home/ciga/builds/pseudo_potentials/C.upf
     MD5 check sum: d80ec9912146af6c4c1760317d1f95e9
     Pseudo is Norm-conserving + core correction, Zval =  4.0
     Generated using ONCVPSP code by D. R. Hamann
     Using radial grid of 1248 points,  4 beta functions with: 
                l(1) =   0
                l(2) =   0
                l(3) =   1
                l(4) =   1

     PseudoPot. # 2 for H  read from file:
     /home/ciga/builds/pseudo_potentials/H.upf
     MD5 check sum: 418cee52d0c413ae40802e6cc37ab9e3
     Pseudo is Norm-conserving, Zval =  1.0
     Generated using ONCVPSP code by D. R. Hamann
     Using radial grid of 1166 points,  3 beta functions with: 
                l(1) =   0
                l(2) =   0
                l(3) =   1

     atomic species   valence    mass     pseudopotential
        C              4.00    12.01070     C ( 1.00)
        H              1.00     1.00794     H ( 1.00)

     No symmetry found



   Cartesian axes

     site n.     atom                  positions (alat units)
         1           C   tau(   1) = (   0.0000000   0.0553973  -0.0000000  )
         2           C   tau(   2) = (  -0.1198181  -0.0248121   0.0000000  )
         3           C   tau(   3) = (   0.1198181  -0.0248121  -0.0000000  )
         4           H   tau(   4) = (   0.0000000   0.1176260   0.0827700  )
         5           H   tau(   5) = (  -0.0000283   0.1176638  -0.0827511  )
         6           H   tau(   6) = (  -0.2038637   0.0353568   0.0000000  )
         7           H   tau(   7) = (   0.2038637   0.0353662   0.0000000  )
         8           H   tau(   8) = (  -0.1253928  -0.0851700   0.0831479  )
         9           H   tau(   9) = (  -0.1253928  -0.0851700  -0.0831479  )
        10           H   tau(  10) = (   0.1253928  -0.0851700  -0.0831479  )
        11           H   tau(  11) = (   0.1254022  -0.0851700   0.0831479  )

     number of k points=     1
                       cart. coord. in units 2pi/alat
        k(    1) = (   0.0000000   0.0000000   0.0000000), wk =   2.0000000

     Dense  grid:   350738 G-vectors     FFT dimensions: ( 120, 120, 120)

     Estimated max dynamical RAM per process >      88.68 MB

     Estimated total dynamical RAM >     354.73 MB

     Initial potential from superposition of free atoms

     starting charge   19.99979, renormalised to   20.00000

     negative rho (up, down):  9.352E-05 0.000E+00
     Starting wfcs are   20 randomized atomic wfcs

     total cpu time spent up to now is        1.5 secs

     Self-consistent Calculation

     iteration #  1     ecut=    75.00 Ry     beta= 0.50
     Davidson diagonalization with overlap
     ethr =  1.00E-02,  avg # of iterations =  2.0

     negative rho (up, down):  3.021E-05 0.000E+00

     total cpu time spent up to now is        2.8 secs

     total energy              =     -45.39765111 Ry
     estimated scf accuracy    <       1.38228378 Ry

     iteration #  2     ecut=    75.00 Ry     beta= 0.50
     Davidson diagonalization with overlap
     ethr =  6.91E-03,  avg # of iterations =  2.0

     negative rho (up, down):  1.140E-05 0.000E+00

     total cpu time spent up to now is        4.2 secs

     total energy              =     -45.64565161 Ry
     estimated scf accuracy    <       0.09973260 Ry

     iteration #  3     ecut=    75.00 Ry     beta= 0.50
     Davidson diagonalization with overlap
     ethr =  4.99E-04,  avg # of iterations =  1.0

     negative rho (up, down):  8.008E-07 0.000E+00

     total cpu time spent up to now is        5.3 secs

     total energy              =     -45.63876388 Ry
     estimated scf accuracy    <       0.02332491 Ry

     iteration #  4     ecut=    75.00 Ry     beta= 0.50
     Davidson diagonalization with overlap
     ethr =  1.17E-04,  avg # of iterations =  2.0

     negative rho (up, down):  3.591E-07 0.000E+00

     total cpu time spent up to now is        6.6 secs

     total energy              =     -45.64110421 Ry
     estimated scf accuracy    <       0.00352682 Ry

     iteration #  5     ecut=    75.00 Ry     beta= 0.50
     Davidson diagonalization with overlap
     ethr =  1.76E-05,  avg # of iterations =  2.0

     negative rho (up, down):  5.447E-08 0.000E+00

     total cpu time spent up to now is        8.0 secs

     total energy              =     -45.64206797 Ry
     estimated scf accuracy    <       0.00108895 Ry

     iteration #  6     ecut=    75.00 Ry     beta= 0.50
     Davidson diagonalization with overlap
     ethr =  5.44E-06,  avg # of iterations =  2.0

     total cpu time spent up to now is        9.4 secs

     total energy              =     -45.64234045 Ry
     estimated scf accuracy    <       0.00007160 Ry

     iteration #  7     ecut=    75.00 Ry     beta= 0.50
     Davidson diagonalization with overlap
     ethr =  3.58E-07,  avg # of iterations =  2.0

     total cpu time spent up to now is       10.8 secs

     total energy              =     -45.64235713 Ry
     estimated scf accuracy    <       0.00000070 Ry

     iteration #  8     ecut=    75.00 Ry     beta= 0.50
     Davidson diagonalization with overlap
     ethr =  3.48E-09,  avg # of iterations =  3.0

     total cpu time spent up to now is       12.3 secs

     total energy              =     -45.64235742 Ry
     estimated scf accuracy    <       0.00000008 Ry

     iteration #  9     ecut=    75.00 Ry     beta= 0.50
     Davidson diagonalization with overlap
     ethr =  4.19E-10,  avg # of iterations =  3.0

     total cpu time spent up to now is       13.7 secs

     total energy              =     -45.64235742 Ry
     estimated scf accuracy    <       0.00000002 Ry

     iteration # 10     ecut=    75.00 Ry     beta= 0.50
     Davidson diagonalization with overlap
     ethr =  9.62E-11,  avg # of iterations =  2.0

     total cpu time spent up to now is       15.2 secs

     total energy              =     -45.64235743 Ry
     estimated scf accuracy    <          1.7E-09 Ry

     iteration # 11     ecut=    75.00 Ry     beta= 0.50
     Davidson diagonalization with overlap
     ethr =  8.34E-12,  avg # of iterations =  3.0

     total cpu time spent up to now is       16.6 secs

     total energy              =     -45.64235743 Ry
     estimated scf accuracy    <          8.9E-10 Ry

     iteration # 12     ecut=    75.00 Ry     beta= 0.50
     Davidson diagonalization with overlap
     ethr =  4.44E-12,  avg # of iterations =  2.0

     total cpu time spent up to now is       18.1 secs

     total energy              =     -45.64235743 Ry
     estimated scf accuracy    <          4.2E-12 Ry

     iteration # 13     ecut=    75.00 Ry     beta= 0.50
     Davidson diagonalization with overlap
     ethr =  1.00E-13,  avg # of iterations =  4.0

     total cpu time spent up to now is       19.6 secs

     total energy              =     -45.64235743 Ry
     estimated scf accuracy    <          7.1E-12 Ry

     iteration # 14     ecut=    75.00 Ry     beta= 0.50
     Davidson diagonalization with overlap
     ethr =  1.00E-13,  avg # of iterations =  1.0

     total cpu time spent up to now is       20.7 secs

     End of self-consistent calculation

          k = 0.0000 0.0000 0.0000 ( 43828 PWs)   bands (ev):

   -18.9349 -16.3727 -13.9254 -10.7709 -10.2198  -9.3077  -8.8110  -7.7156
    -7.6441  -7.4069

     highest occupied level (ev):    -7.4069

!    total energy              =     -45.64235743 Ry
     estimated scf accuracy    <          4.5E-14 Ry

     The total energy is the sum of the following terms:
     one-electron contribution =    -148.27069865 Ry
     hartree contribution      =      76.72768270 Ry
     xc contribution           =     -18.64798304 Ry
     ewald contribution        =      44.54864156 Ry

     convergence has been achieved in  14 iterations

     Forces acting on atoms (cartesian axes, Ry/au):

     atom    1 type  1   force =    -0.00005186   -0.01022248   -0.00001189
     atom    2 type  1   force =    -0.00470484    0.01510848    0.00000375
     atom    3 type  1   force =     0.00475968    0.01519575   -0.00004498
     atom    4 type  2   force =    -0.00000090    0.00296916    0.00407372
     atom    5 type  2   force =     0.00006050    0.00287740   -0.00400672
     atom    6 type  2   force =    -0.00597760    0.00154810    0.00000047
     atom    7 type  2   force =     0.00592847    0.00149730   -0.00000787
     atom    8 type  2   force =     0.00157347   -0.00724891    0.00951419
     atom    9 type  2   force =     0.00157351   -0.00724711   -0.00951650
     atom   10 type  2   force =    -0.00156520   -0.00724417   -0.00951604
     atom   11 type  2   force =    -0.00159524   -0.00723352    0.00951186

     Total force =     0.036272     Total SCF correction =     0.000000

     Writing output data file ./Propane.save/

     init_run     :      1.29s CPU      1.39s WALL (       1 calls)
     electrons    :     18.69s CPU     19.22s WALL (       1 calls)
     forces       :      0.85s CPU      0.89s WALL (       1 calls)

     Called by init_run:
     wfcinit      :      0.46s CPU      0.47s WALL (       1 calls)
     potinit      :      0.52s CPU      0.58s WALL (       1 calls)
     hinit0       :      0.20s CPU      0.22s WALL (       1 calls)

     Called by electrons:
     c_bands      :      9.76s CPU      9.83s WALL (      14 calls)
     sum_band     :      2.56s CPU      2.58s WALL (      14 calls)
     v_of_rho     :      5.16s CPU      5.63s WALL (      15 calls)
     mix_rho      :      1.38s CPU      1.40s WALL (      14 calls)

     Called by c_bands:
     init_us_2    :      0.17s CPU      0.18s WALL (      29 calls)
     regterg      :      9.56s CPU      9.62s WALL (      14 calls)

     Called by *egterg:
     rdiaghg      :      0.03s CPU      0.03s WALL (      45 calls)
     h_psi        :      8.89s CPU      8.96s WALL (      46 calls)
     g_psi        :      0.02s CPU      0.02s WALL (      31 calls)

     Called by h_psi:
     h_psi:calbec :      0.85s CPU      0.86s WALL (      46 calls)
     vloc_psi     :      7.28s CPU      7.35s WALL (      46 calls)
     add_vuspsi   :      0.70s CPU      0.70s WALL (      46 calls)

     General routines
     calbec       :      0.93s CPU      0.94s WALL (      50 calls)
     fft          :      3.65s CPU      3.74s WALL (     128 calls)
     ffts         :      0.39s CPU      0.39s WALL (      14 calls)
     fftw         :      6.79s CPU      6.85s WALL (     500 calls)

     Parallel routines

     PWSCF        :     20.93s CPU     21.61s WALL


   This run was terminated on:   6:49:30  24May2021            

=------------------------------------------------------------------------------=
   JOB DONE.
=------------------------------------------------------------------------------=
