
     Program PWSCF v.6.7GPU starts on 24May2021 at  6:47:33 

     This program is part of the open-source Quantum ESPRESSO suite
     for quantum simulation of materials; please cite
         "P. Giannozzi et al., J. Phys.:Condens. Matter 21 395502 (2009);
         "P. Giannozzi et al., J. Phys.:Condens. Matter 29 465901 (2017);
         "P. Giannozzi et al., J. Chem. Phys. 152 154105 (2020);
          URL http://www.quantum-espresso.org", 
     in publications or presentations arising from this work. More details at
     http://www.quantum-espresso.org/quote

     Parallel version (MPI), running on     4 processors

     MPI processes distributed on     1 nodes
     R & G space division:  proc/nbgrp/npool/nimage =       4
     Waiting for input...
     Reading input from standard input
     Message from routine read_cards :
     DEPRECATED: no units specified in CELL_PARAMETERS card

     Current dimensions of program PWSCF are:
     Max number of different atomic species (ntypx) = 10
     Max number of k-points (npk) =  40000
     Max angular momentum in pseudopotentials (lmaxx) =  3

     gamma-point specific algorithms are used

     Subspace diagonalization in iterative solution of the eigenvalue problem:
     one sub-group per band group will be used
     scalapack distributed-memory algorithm (size of sub-group:  2*  2 procs)


     Parallelization info
     --------------------
     sticks:   dense  smooth     PW     G-vecs:    dense   smooth      PW
     Min        1115    1115    276                55933    55933    7000
     Max        1118    1118    278                55934    55934    7006
     Sum        4469    4469   1109               223735   223735   28017

     Using Slab Decomposition



     bravais-lattice index     =            0
     lattice parameter (alat)  =      20.0000  a.u.
     unit-cell volume          =    8000.0000 (a.u.)^3
     number of atoms/cell      =           11
     number of atomic types    =            2
     number of electrons       =        20.00
     number of Kohn-Sham states=           10
     kinetic-energy cutoff     =      35.0000  Ry
     charge density cutoff     =     140.0000  Ry
     scf convergence threshold =      1.0E-12
     mixing beta               =       0.5000
     number of iterations used =            8  plain     mixing
     Exchange-correlation= PBE
                           (   1   4   3   4   0   0   0)

     celldm(1)=  20.000000  celldm(2)=   0.000000  celldm(3)=   0.000000
     celldm(4)=   0.000000  celldm(5)=   0.000000  celldm(6)=   0.000000

     crystal axes: (cart. coord. in units of alat)
               a(1) = (   1.000000   0.000000   0.000000 )  
               a(2) = (   0.000000   1.000000   0.000000 )  
               a(3) = (   0.000000   0.000000   1.000000 )  

     reciprocal axes: (cart. coord. in units 2 pi/alat)
               b(1) = (  1.000000  0.000000  0.000000 )  
               b(2) = (  0.000000  1.000000  0.000000 )  
               b(3) = (  0.000000  0.000000  1.000000 )  


     PseudoPot. # 1 for C  read from file:
     /home/ciga/builds/pseudo_potentials/C.upf
     MD5 check sum: d80ec9912146af6c4c1760317d1f95e9
     Pseudo is Norm-conserving + core correction, Zval =  4.0
     Generated using ONCVPSP code by D. R. Hamann
     Using radial grid of 1248 points,  4 beta functions with: 
                l(1) =   0
                l(2) =   0
                l(3) =   1
                l(4) =   1

     PseudoPot. # 2 for H  read from file:
     /home/ciga/builds/pseudo_potentials/H.upf
     MD5 check sum: 418cee52d0c413ae40802e6cc37ab9e3
     Pseudo is Norm-conserving, Zval =  1.0
     Generated using ONCVPSP code by D. R. Hamann
     Using radial grid of 1166 points,  3 beta functions with: 
                l(1) =   0
                l(2) =   0
                l(3) =   1

     atomic species   valence    mass     pseudopotential
        C              4.00    12.01070     C ( 1.00)
        H              1.00     1.00794     H ( 1.00)

     No symmetry found



   Cartesian axes

     site n.     atom                  positions (alat units)
         1           C   tau(   1) = (   0.0000000   0.0553973  -0.0000000  )
         2           C   tau(   2) = (  -0.1198181  -0.0248121   0.0000000  )
         3           C   tau(   3) = (   0.1198181  -0.0248121  -0.0000000  )
         4           H   tau(   4) = (   0.0000000   0.1176260   0.0827700  )
         5           H   tau(   5) = (  -0.0000283   0.1176638  -0.0827511  )
         6           H   tau(   6) = (  -0.2038637   0.0353568   0.0000000  )
         7           H   tau(   7) = (   0.2038637   0.0353662   0.0000000  )
         8           H   tau(   8) = (  -0.1253928  -0.0851700   0.0831479  )
         9           H   tau(   9) = (  -0.1253928  -0.0851700  -0.0831479  )
        10           H   tau(  10) = (   0.1253928  -0.0851700  -0.0831479  )
        11           H   tau(  11) = (   0.1254022  -0.0851700   0.0831479  )

     number of k points=     1
                       cart. coord. in units 2pi/alat
        k(    1) = (   0.0000000   0.0000000   0.0000000), wk =   2.0000000

     Dense  grid:   111868 G-vectors     FFT dimensions: (  75,  75,  75)

     Estimated max dynamical RAM per process >      26.45 MB

     Estimated total dynamical RAM >     105.82 MB

     Initial potential from superposition of free atoms

     starting charge   19.99979, renormalised to   20.00000

     negative rho (up, down):  3.061E-03 0.000E+00
     Starting wfcs are   20 randomized atomic wfcs

     total cpu time spent up to now is        0.5 secs

     Self-consistent Calculation

     iteration #  1     ecut=    35.00 Ry     beta= 0.50
     Davidson diagonalization with overlap
     ethr =  1.00E-02,  avg # of iterations =  2.0

     negative rho (up, down):  1.444E-03 0.000E+00

     total cpu time spent up to now is        0.8 secs

     total energy              =     -45.19583303 Ry
     estimated scf accuracy    <       1.22684978 Ry

     iteration #  2     ecut=    35.00 Ry     beta= 0.50
     Davidson diagonalization with overlap
     ethr =  6.13E-03,  avg # of iterations =  2.0

     negative rho (up, down):  6.645E-04 0.000E+00

     total cpu time spent up to now is        1.1 secs

     total energy              =     -45.39620072 Ry
     estimated scf accuracy    <       0.09347978 Ry

     iteration #  3     ecut=    35.00 Ry     beta= 0.50
     Davidson diagonalization with overlap
     ethr =  4.67E-04,  avg # of iterations =  1.0

     negative rho (up, down):  3.142E-05 0.000E+00

     total cpu time spent up to now is        1.4 secs

     total energy              =     -45.39003301 Ry
     estimated scf accuracy    <       0.02064039 Ry

     iteration #  4     ecut=    35.00 Ry     beta= 0.50
     Davidson diagonalization with overlap
     ethr =  1.03E-04,  avg # of iterations =  2.0

     negative rho (up, down):  1.576E-05 0.000E+00

     total cpu time spent up to now is        1.7 secs

     total energy              =     -45.39211744 Ry
     estimated scf accuracy    <       0.00250222 Ry

     iteration #  5     ecut=    35.00 Ry     beta= 0.50
     Davidson diagonalization with overlap
     ethr =  1.25E-05,  avg # of iterations =  2.0

     negative rho (up, down):  3.704E-07 0.000E+00

     total cpu time spent up to now is        2.1 secs

     total energy              =     -45.39278401 Ry
     estimated scf accuracy    <       0.00075235 Ry

     iteration #  6     ecut=    35.00 Ry     beta= 0.50
     Davidson diagonalization with overlap
     ethr =  3.76E-06,  avg # of iterations =  2.0

     total cpu time spent up to now is        2.4 secs

     total energy              =     -45.39297528 Ry
     estimated scf accuracy    <       0.00007160 Ry

     iteration #  7     ecut=    35.00 Ry     beta= 0.50
     Davidson diagonalization with overlap
     ethr =  3.58E-07,  avg # of iterations =  2.0

     total cpu time spent up to now is        2.7 secs

     total energy              =     -45.39299112 Ry
     estimated scf accuracy    <       0.00000081 Ry

     iteration #  8     ecut=    35.00 Ry     beta= 0.50
     Davidson diagonalization with overlap
     ethr =  4.07E-09,  avg # of iterations =  3.0

     total cpu time spent up to now is        3.1 secs

     total energy              =     -45.39299135 Ry
     estimated scf accuracy    <       0.00000023 Ry

     iteration #  9     ecut=    35.00 Ry     beta= 0.50
     Davidson diagonalization with overlap
     ethr =  1.14E-09,  avg # of iterations =  2.0

     total cpu time spent up to now is        3.4 secs

     total energy              =     -45.39299138 Ry
     estimated scf accuracy    <          5.1E-09 Ry

     iteration # 10     ecut=    35.00 Ry     beta= 0.50
     Davidson diagonalization with overlap
     ethr =  2.56E-11,  avg # of iterations =  2.0

     total cpu time spent up to now is        3.8 secs

     total energy              =     -45.39299138 Ry
     estimated scf accuracy    <          9.7E-10 Ry

     iteration # 11     ecut=    35.00 Ry     beta= 0.50
     Davidson diagonalization with overlap
     ethr =  4.86E-12,  avg # of iterations =  2.0

     total cpu time spent up to now is        4.1 secs

     total energy              =     -45.39299138 Ry
     estimated scf accuracy    <          1.4E-10 Ry

     iteration # 12     ecut=    35.00 Ry     beta= 0.50
     Davidson diagonalization with overlap
     ethr =  7.03E-13,  avg # of iterations =  2.0

     total cpu time spent up to now is        4.4 secs

     total energy              =     -45.39299138 Ry
     estimated scf accuracy    <          1.6E-12 Ry

     iteration # 13     ecut=    35.00 Ry     beta= 0.50
     Davidson diagonalization with overlap
     ethr =  1.00E-13,  avg # of iterations =  2.0

     total cpu time spent up to now is        4.7 secs

     End of self-consistent calculation

          k = 0.0000 0.0000 0.0000 ( 14009 PWs)   bands (ev):

   -19.0820 -16.4801 -14.0008 -10.7871 -10.2268  -9.2999  -8.8042  -7.6929
    -7.6220  -7.3915

     highest occupied level (ev):    -7.3915

!    total energy              =     -45.39299138 Ry
     estimated scf accuracy    <          5.8E-13 Ry

     The total energy is the sum of the following terms:
     one-electron contribution =    -147.83023931 Ry
     hartree contribution      =      76.45393675 Ry
     xc contribution           =     -18.56533036 Ry
     ewald contribution        =      44.54864154 Ry

     convergence has been achieved in  13 iterations

     Forces acting on atoms (cartesian axes, Ry/au):

     atom    1 type  1   force =    -0.00005021    0.00468400   -0.00001920
     atom    2 type  1   force =    -0.01608862    0.00872531    0.00000397
     atom    3 type  1   force =     0.01614812    0.00881546   -0.00004442
     atom    4 type  2   force =    -0.00000097    0.00606319    0.00796398
     atom    5 type  2   force =     0.00005903    0.00596884   -0.00788990
     atom    6 type  2   force =    -0.01008667    0.00389494    0.00000046
     atom    7 type  2   force =     0.01003257    0.00384086   -0.00000786
     atom    8 type  2   force =     0.00098675   -0.01050372    0.01396781
     atom    9 type  2   force =     0.00098670   -0.01050195   -0.01397019
     atom   10 type  2   force =    -0.00097830   -0.01049916   -0.01396979
     atom   11 type  2   force =    -0.00100839   -0.01048777    0.01396515

     Total force =     0.048487     Total SCF correction =     0.000001

     Writing output data file ./Propane.save/

     init_run     :      0.38s CPU      0.39s WALL (       1 calls)
     electrons    :      4.11s CPU      4.23s WALL (       1 calls)
     forces       :      0.25s CPU      0.27s WALL (       1 calls)

     Called by init_run:
     wfcinit      :      0.11s CPU      0.11s WALL (       1 calls)
     potinit      :      0.17s CPU      0.18s WALL (       1 calls)
     hinit0       :      0.07s CPU      0.07s WALL (       1 calls)

     Called by electrons:
     c_bands      :      2.14s CPU      2.16s WALL (      13 calls)
     sum_band     :      0.55s CPU      0.55s WALL (      13 calls)
     v_of_rho     :      1.20s CPU      1.30s WALL (      14 calls)
     mix_rho      :      0.27s CPU      0.28s WALL (      13 calls)

     Called by c_bands:
     init_us_2    :      0.05s CPU      0.05s WALL (      27 calls)
     regterg      :      2.07s CPU      2.09s WALL (      13 calls)

     Called by *egterg:
     rdiaghg      :      0.02s CPU      0.02s WALL (      39 calls)
     h_psi        :      1.92s CPU      1.93s WALL (      40 calls)
     g_psi        :      0.00s CPU      0.00s WALL (      26 calls)

     Called by h_psi:
     h_psi:calbec :      0.26s CPU      0.26s WALL (      40 calls)
     vloc_psi     :      1.45s CPU      1.47s WALL (      40 calls)
     add_vuspsi   :      0.20s CPU      0.20s WALL (      40 calls)

     General routines
     calbec       :      0.28s CPU      0.29s WALL (      44 calls)
     fft          :      0.80s CPU      0.83s WALL (     120 calls)
     ffts         :      0.09s CPU      0.09s WALL (      13 calls)
     fftw         :      1.35s CPU      1.36s WALL (     453 calls)

     Parallel routines

     PWSCF        :      4.82s CPU      4.98s WALL


   This run was terminated on:   6:47:38  24May2021            

=------------------------------------------------------------------------------=
   JOB DONE.
=------------------------------------------------------------------------------=
