
     Program PWSCF v.6.7GPU starts on 24May2021 at  6:48: 6 

     This program is part of the open-source Quantum ESPRESSO suite
     for quantum simulation of materials; please cite
         "P. Giannozzi et al., J. Phys.:Condens. Matter 21 395502 (2009);
         "P. Giannozzi et al., J. Phys.:Condens. Matter 29 465901 (2017);
         "P. Giannozzi et al., J. Chem. Phys. 152 154105 (2020);
          URL http://www.quantum-espresso.org", 
     in publications or presentations arising from this work. More details at
     http://www.quantum-espresso.org/quote

     Parallel version (MPI), running on     4 processors

     MPI processes distributed on     1 nodes
     R & G space division:  proc/nbgrp/npool/nimage =       4
     Waiting for input...
     Reading input from standard input
     Message from routine read_cards :
     DEPRECATED: no units specified in CELL_PARAMETERS card

     Current dimensions of program PWSCF are:
     Max number of different atomic species (ntypx) = 10
     Max number of k-points (npk) =  40000
     Max angular momentum in pseudopotentials (lmaxx) =  3

     gamma-point specific algorithms are used

     Subspace diagonalization in iterative solution of the eigenvalue problem:
     one sub-group per band group will be used
     scalapack distributed-memory algorithm (size of sub-group:  2*  2 procs)


     Parallelization info
     --------------------
     sticks:   dense  smooth     PW     G-vecs:    dense   smooth      PW
     Min        1753    1753    438               110351   110351   13793
     Max        1756    1756    440               110356   110356   13796
     Sum        7017    7017   1757               441415   441415   55179

     Using Slab Decomposition



     bravais-lattice index     =            0
     lattice parameter (alat)  =      20.0000  a.u.
     unit-cell volume          =    8000.0000 (a.u.)^3
     number of atoms/cell      =           11
     number of atomic types    =            2
     number of electrons       =        20.00
     number of Kohn-Sham states=           10
     kinetic-energy cutoff     =      55.0000  Ry
     charge density cutoff     =     220.0000  Ry
     scf convergence threshold =      1.0E-12
     mixing beta               =       0.5000
     number of iterations used =            8  plain     mixing
     Exchange-correlation= PBE
                           (   1   4   3   4   0   0   0)

     celldm(1)=  20.000000  celldm(2)=   0.000000  celldm(3)=   0.000000
     celldm(4)=   0.000000  celldm(5)=   0.000000  celldm(6)=   0.000000

     crystal axes: (cart. coord. in units of alat)
               a(1) = (   1.000000   0.000000   0.000000 )  
               a(2) = (   0.000000   1.000000   0.000000 )  
               a(3) = (   0.000000   0.000000   1.000000 )  

     reciprocal axes: (cart. coord. in units 2 pi/alat)
               b(1) = (  1.000000  0.000000  0.000000 )  
               b(2) = (  0.000000  1.000000  0.000000 )  
               b(3) = (  0.000000  0.000000  1.000000 )  


     PseudoPot. # 1 for C  read from file:
     /home/ciga/builds/pseudo_potentials/C.upf
     MD5 check sum: d80ec9912146af6c4c1760317d1f95e9
     Pseudo is Norm-conserving + core correction, Zval =  4.0
     Generated using ONCVPSP code by D. R. Hamann
     Using radial grid of 1248 points,  4 beta functions with: 
                l(1) =   0
                l(2) =   0
                l(3) =   1
                l(4) =   1

     PseudoPot. # 2 for H  read from file:
     /home/ciga/builds/pseudo_potentials/H.upf
     MD5 check sum: 418cee52d0c413ae40802e6cc37ab9e3
     Pseudo is Norm-conserving, Zval =  1.0
     Generated using ONCVPSP code by D. R. Hamann
     Using radial grid of 1166 points,  3 beta functions with: 
                l(1) =   0
                l(2) =   0
                l(3) =   1

     atomic species   valence    mass     pseudopotential
        C              4.00    12.01070     C ( 1.00)
        H              1.00     1.00794     H ( 1.00)

     No symmetry found



   Cartesian axes

     site n.     atom                  positions (alat units)
         1           C   tau(   1) = (   0.0000000   0.0553973  -0.0000000  )
         2           C   tau(   2) = (  -0.1198181  -0.0248121   0.0000000  )
         3           C   tau(   3) = (   0.1198181  -0.0248121  -0.0000000  )
         4           H   tau(   4) = (   0.0000000   0.1176260   0.0827700  )
         5           H   tau(   5) = (  -0.0000283   0.1176638  -0.0827511  )
         6           H   tau(   6) = (  -0.2038637   0.0353568   0.0000000  )
         7           H   tau(   7) = (   0.2038637   0.0353662   0.0000000  )
         8           H   tau(   8) = (  -0.1253928  -0.0851700   0.0831479  )
         9           H   tau(   9) = (  -0.1253928  -0.0851700  -0.0831479  )
        10           H   tau(  10) = (   0.1253928  -0.0851700  -0.0831479  )
        11           H   tau(  11) = (   0.1254022  -0.0851700   0.0831479  )

     number of k points=     1
                       cart. coord. in units 2pi/alat
        k(    1) = (   0.0000000   0.0000000   0.0000000), wk =   2.0000000

     Dense  grid:   220708 G-vectors     FFT dimensions: (  96,  96,  96)

     Estimated max dynamical RAM per process >      52.49 MB

     Estimated total dynamical RAM >     209.94 MB

     Initial potential from superposition of free atoms

     starting charge   19.99979, renormalised to   20.00000

     negative rho (up, down):  5.602E-04 0.000E+00
     Starting wfcs are   20 randomized atomic wfcs

     total cpu time spent up to now is        0.9 secs

     Self-consistent Calculation

     iteration #  1     ecut=    55.00 Ry     beta= 0.50
     Davidson diagonalization with overlap
     ethr =  1.00E-02,  avg # of iterations =  2.0

     negative rho (up, down):  2.500E-04 0.000E+00

     total cpu time spent up to now is        1.6 secs

     total energy              =     -45.37852293 Ry
     estimated scf accuracy    <       1.36616008 Ry

     iteration #  2     ecut=    55.00 Ry     beta= 0.50
     Davidson diagonalization with overlap
     ethr =  6.83E-03,  avg # of iterations =  2.0

     negative rho (up, down):  1.158E-04 0.000E+00

     total cpu time spent up to now is        2.3 secs

     total energy              =     -45.62179081 Ry
     estimated scf accuracy    <       0.09910578 Ry

     iteration #  3     ecut=    55.00 Ry     beta= 0.50
     Davidson diagonalization with overlap
     ethr =  4.96E-04,  avg # of iterations =  1.0

     negative rho (up, down):  7.907E-06 0.000E+00

     total cpu time spent up to now is        2.9 secs

     total energy              =     -45.61491778 Ry
     estimated scf accuracy    <       0.02307950 Ry

     iteration #  4     ecut=    55.00 Ry     beta= 0.50
     Davidson diagonalization with overlap
     ethr =  1.15E-04,  avg # of iterations =  2.0

     negative rho (up, down):  4.319E-06 0.000E+00

     total cpu time spent up to now is        3.6 secs

     total energy              =     -45.61724327 Ry
     estimated scf accuracy    <       0.00344734 Ry

     iteration #  5     ecut=    55.00 Ry     beta= 0.50
     Davidson diagonalization with overlap
     ethr =  1.72E-05,  avg # of iterations =  2.0

     negative rho (up, down):  3.396E-07 0.000E+00

     total cpu time spent up to now is        4.3 secs

     total energy              =     -45.61818578 Ry
     estimated scf accuracy    <       0.00103138 Ry

     iteration #  6     ecut=    55.00 Ry     beta= 0.50
     Davidson diagonalization with overlap
     ethr =  5.16E-06,  avg # of iterations =  2.0

     negative rho (up, down):  1.368E-08 0.000E+00

     total cpu time spent up to now is        5.1 secs

     total energy              =     -45.61844393 Ry
     estimated scf accuracy    <       0.00007073 Ry

     iteration #  7     ecut=    55.00 Ry     beta= 0.50
     Davidson diagonalization with overlap
     ethr =  3.54E-07,  avg # of iterations =  2.0

     total cpu time spent up to now is        5.8 secs

     total energy              =     -45.61846035 Ry
     estimated scf accuracy    <       0.00000073 Ry

     iteration #  8     ecut=    55.00 Ry     beta= 0.50
     Davidson diagonalization with overlap
     ethr =  3.63E-09,  avg # of iterations =  3.0

     total cpu time spent up to now is        6.6 secs

     total energy              =     -45.61846060 Ry
     estimated scf accuracy    <       0.00000008 Ry

     iteration #  9     ecut=    55.00 Ry     beta= 0.50
     Davidson diagonalization with overlap
     ethr =  4.01E-10,  avg # of iterations =  3.0

     total cpu time spent up to now is        7.4 secs

     total energy              =     -45.61846061 Ry
     estimated scf accuracy    <       0.00000001 Ry

     iteration # 10     ecut=    55.00 Ry     beta= 0.50
     Davidson diagonalization with overlap
     ethr =  7.29E-11,  avg # of iterations =  2.0

     total cpu time spent up to now is        8.1 secs

     total energy              =     -45.61846061 Ry
     estimated scf accuracy    <          1.8E-09 Ry

     iteration # 11     ecut=    55.00 Ry     beta= 0.50
     Davidson diagonalization with overlap
     ethr =  9.05E-12,  avg # of iterations =  2.0

     total cpu time spent up to now is        8.8 secs

     total energy              =     -45.61846061 Ry
     estimated scf accuracy    <          7.5E-10 Ry

     iteration # 12     ecut=    55.00 Ry     beta= 0.50
     Davidson diagonalization with overlap
     ethr =  3.75E-12,  avg # of iterations =  2.0

     total cpu time spent up to now is        9.6 secs

     total energy              =     -45.61846061 Ry
     estimated scf accuracy    <          1.3E-11 Ry

     iteration # 13     ecut=    55.00 Ry     beta= 0.50
     Davidson diagonalization with overlap
     ethr =  1.00E-13,  avg # of iterations =  3.0

     total cpu time spent up to now is       10.3 secs

     End of self-consistent calculation

          k = 0.0000 0.0000 0.0000 ( 27590 PWs)   bands (ev):

   -18.9538 -16.3884 -13.9373 -10.7725 -10.2210  -9.3077  -8.8103  -7.7141
    -7.6432  -7.4048

     highest occupied level (ev):    -7.4048

!    total energy              =     -45.61846061 Ry
     estimated scf accuracy    <          9.4E-13 Ry

     The total energy is the sum of the following terms:
     one-electron contribution =    -148.22926742 Ry
     hartree contribution      =      76.70040232 Ry
     xc contribution           =     -18.63823706 Ry
     ewald contribution        =      44.54864155 Ry

     convergence has been achieved in  13 iterations

     Forces acting on atoms (cartesian axes, Ry/au):

     atom    1 type  1   force =    -0.00005168   -0.01292931   -0.00001130
     atom    2 type  1   force =    -0.00253333    0.01638834    0.00000375
     atom    3 type  1   force =     0.00258786    0.01647507   -0.00004505
     atom    4 type  2   force =    -0.00000091    0.00363004    0.00493934
     atom    5 type  2   force =     0.00006010    0.00353930   -0.00487292
     atom    6 type  2   force =    -0.00683953    0.00212362    0.00000048
     atom    7 type  2   force =     0.00679095    0.00207329   -0.00000786
     atom    8 type  2   force =     0.00149589   -0.00783056    0.01030681
     atom    9 type  2   force =     0.00149591   -0.00782878   -0.01030913
     atom   10 type  2   force =    -0.00148762   -0.00782584   -0.01030865
     atom   11 type  2   force =    -0.00151763   -0.00781518    0.01030454

     Total force =     0.039683     Total SCF correction =     0.000001

     Writing output data file ./Propane.save/

     init_run     :      0.72s CPU      0.78s WALL (       1 calls)
     electrons    :      9.24s CPU      9.46s WALL (       1 calls)
     forces       :      0.51s CPU      0.53s WALL (       1 calls)

     Called by init_run:
     wfcinit      :      0.23s CPU      0.24s WALL (       1 calls)
     potinit      :      0.31s CPU      0.33s WALL (       1 calls)
     hinit0       :      0.12s CPU      0.14s WALL (       1 calls)

     Called by electrons:
     c_bands      :      4.68s CPU      4.72s WALL (      13 calls)
     sum_band     :      1.24s CPU      1.25s WALL (      13 calls)
     v_of_rho     :      2.72s CPU      2.88s WALL (      14 calls)
     mix_rho      :      0.69s CPU      0.71s WALL (      13 calls)

     Called by c_bands:
     init_us_2    :      0.10s CPU      0.10s WALL (      27 calls)
     regterg      :      4.56s CPU      4.60s WALL (      13 calls)

     Called by *egterg:
     rdiaghg      :      0.02s CPU      0.02s WALL (      41 calls)
     h_psi        :      4.19s CPU      4.22s WALL (      42 calls)
     g_psi        :      0.01s CPU      0.01s WALL (      28 calls)

     Called by h_psi:
     h_psi:calbec :      0.52s CPU      0.52s WALL (      42 calls)
     vloc_psi     :      3.23s CPU      3.26s WALL (      42 calls)
     add_vuspsi   :      0.41s CPU      0.41s WALL (      42 calls)

     General routines
     calbec       :      0.57s CPU      0.57s WALL (      46 calls)
     fft          :      1.93s CPU      1.98s WALL (     120 calls)
     ffts         :      0.20s CPU      0.20s WALL (      13 calls)
     fftw         :      2.99s CPU      3.01s WALL (     467 calls)

     Parallel routines

     PWSCF        :     10.56s CPU     10.87s WALL


   This run was terminated on:   6:48:17  24May2021            

=------------------------------------------------------------------------------=
   JOB DONE.
=------------------------------------------------------------------------------=
