
     Program PWSCF v.6.7GPU starts on 24May2021 at  6:48:48 

     This program is part of the open-source Quantum ESPRESSO suite
     for quantum simulation of materials; please cite
         "P. Giannozzi et al., J. Phys.:Condens. Matter 21 395502 (2009);
         "P. Giannozzi et al., J. Phys.:Condens. Matter 29 465901 (2017);
         "P. Giannozzi et al., J. Chem. Phys. 152 154105 (2020);
          URL http://www.quantum-espresso.org", 
     in publications or presentations arising from this work. More details at
     http://www.quantum-espresso.org/quote

     Parallel version (MPI), running on     4 processors

     MPI processes distributed on     1 nodes
     R & G space division:  proc/nbgrp/npool/nimage =       4
     Waiting for input...
     Reading input from standard input
     Message from routine read_cards :
     DEPRECATED: no units specified in CELL_PARAMETERS card

     Current dimensions of program PWSCF are:
     Max number of different atomic species (ntypx) = 10
     Max number of k-points (npk) =  40000
     Max angular momentum in pseudopotentials (lmaxx) =  3

     gamma-point specific algorithms are used

     Subspace diagonalization in iterative solution of the eigenvalue problem:
     one sub-group per band group will be used
     scalapack distributed-memory algorithm (size of sub-group:  2*  2 procs)


     Parallelization info
     --------------------
     sticks:   dense  smooth     PW     G-vecs:    dense   smooth      PW
     Min        2230    2230    557               158211   158211   19778
     Max        2234    2234    560               158214   158214   19781
     Sum        8929    8929   2233               632851   632851   79117

     Using Slab Decomposition



     bravais-lattice index     =            0
     lattice parameter (alat)  =      20.0000  a.u.
     unit-cell volume          =    8000.0000 (a.u.)^3
     number of atoms/cell      =           11
     number of atomic types    =            2
     number of electrons       =        20.00
     number of Kohn-Sham states=           10
     kinetic-energy cutoff     =      70.0000  Ry
     charge density cutoff     =     280.0000  Ry
     scf convergence threshold =      1.0E-12
     mixing beta               =       0.5000
     number of iterations used =            8  plain     mixing
     Exchange-correlation= PBE
                           (   1   4   3   4   0   0   0)

     celldm(1)=  20.000000  celldm(2)=   0.000000  celldm(3)=   0.000000
     celldm(4)=   0.000000  celldm(5)=   0.000000  celldm(6)=   0.000000

     crystal axes: (cart. coord. in units of alat)
               a(1) = (   1.000000   0.000000   0.000000 )  
               a(2) = (   0.000000   1.000000   0.000000 )  
               a(3) = (   0.000000   0.000000   1.000000 )  

     reciprocal axes: (cart. coord. in units 2 pi/alat)
               b(1) = (  1.000000  0.000000  0.000000 )  
               b(2) = (  0.000000  1.000000  0.000000 )  
               b(3) = (  0.000000  0.000000  1.000000 )  


     PseudoPot. # 1 for C  read from file:
     /home/ciga/builds/pseudo_potentials/C.upf
     MD5 check sum: d80ec9912146af6c4c1760317d1f95e9
     Pseudo is Norm-conserving + core correction, Zval =  4.0
     Generated using ONCVPSP code by D. R. Hamann
     Using radial grid of 1248 points,  4 beta functions with: 
                l(1) =   0
                l(2) =   0
                l(3) =   1
                l(4) =   1

     PseudoPot. # 2 for H  read from file:
     /home/ciga/builds/pseudo_potentials/H.upf
     MD5 check sum: 418cee52d0c413ae40802e6cc37ab9e3
     Pseudo is Norm-conserving, Zval =  1.0
     Generated using ONCVPSP code by D. R. Hamann
     Using radial grid of 1166 points,  3 beta functions with: 
                l(1) =   0
                l(2) =   0
                l(3) =   1

     atomic species   valence    mass     pseudopotential
        C              4.00    12.01070     C ( 1.00)
        H              1.00     1.00794     H ( 1.00)

     No symmetry found



   Cartesian axes

     site n.     atom                  positions (alat units)
         1           C   tau(   1) = (   0.0000000   0.0553973  -0.0000000  )
         2           C   tau(   2) = (  -0.1198181  -0.0248121   0.0000000  )
         3           C   tau(   3) = (   0.1198181  -0.0248121  -0.0000000  )
         4           H   tau(   4) = (   0.0000000   0.1176260   0.0827700  )
         5           H   tau(   5) = (  -0.0000283   0.1176638  -0.0827511  )
         6           H   tau(   6) = (  -0.2038637   0.0353568   0.0000000  )
         7           H   tau(   7) = (   0.2038637   0.0353662   0.0000000  )
         8           H   tau(   8) = (  -0.1253928  -0.0851700   0.0831479  )
         9           H   tau(   9) = (  -0.1253928  -0.0851700  -0.0831479  )
        10           H   tau(  10) = (   0.1253928  -0.0851700  -0.0831479  )
        11           H   tau(  11) = (   0.1254022  -0.0851700   0.0831479  )

     number of k points=     1
                       cart. coord. in units 2pi/alat
        k(    1) = (   0.0000000   0.0000000   0.0000000), wk =   2.0000000

     Dense  grid:   316426 G-vectors     FFT dimensions: ( 108, 108, 108)

     Estimated max dynamical RAM per process >      74.91 MB

     Estimated total dynamical RAM >     299.65 MB

     Initial potential from superposition of free atoms

     starting charge   19.99979, renormalised to   20.00000

     negative rho (up, down):  1.343E-04 0.000E+00
     Starting wfcs are   20 randomized atomic wfcs

     total cpu time spent up to now is        1.3 secs

     Self-consistent Calculation

     iteration #  1     ecut=    70.00 Ry     beta= 0.50
     Davidson diagonalization with overlap
     ethr =  1.00E-02,  avg # of iterations =  2.0

     negative rho (up, down):  4.795E-05 0.000E+00

     total cpu time spent up to now is        2.5 secs

     total energy              =     -45.39778921 Ry
     estimated scf accuracy    <       1.37957099 Ry

     iteration #  2     ecut=    70.00 Ry     beta= 0.50
     Davidson diagonalization with overlap
     ethr =  6.90E-03,  avg # of iterations =  2.0

     negative rho (up, down):  1.935E-05 0.000E+00

     total cpu time spent up to now is        3.7 secs

     total energy              =     -45.64424524 Ry
     estimated scf accuracy    <       0.09931217 Ry

     iteration #  3     ecut=    70.00 Ry     beta= 0.50
     Davidson diagonalization with overlap
     ethr =  4.97E-04,  avg # of iterations =  1.0

     negative rho (up, down):  1.379E-06 0.000E+00

     total cpu time spent up to now is        4.7 secs

     total energy              =     -45.63740795 Ry
     estimated scf accuracy    <       0.02319407 Ry

     iteration #  4     ecut=    70.00 Ry     beta= 0.50
     Davidson diagonalization with overlap
     ethr =  1.16E-04,  avg # of iterations =  2.0

     negative rho (up, down):  6.562E-07 0.000E+00

     total cpu time spent up to now is        5.8 secs

     total energy              =     -45.63973013 Ry
     estimated scf accuracy    <       0.00345680 Ry

     iteration #  5     ecut=    70.00 Ry     beta= 0.50
     Davidson diagonalization with overlap
     ethr =  1.73E-05,  avg # of iterations =  2.0

     negative rho (up, down):  8.848E-08 0.000E+00

     total cpu time spent up to now is        7.0 secs

     total energy              =     -45.64066994 Ry
     estimated scf accuracy    <       0.00107540 Ry

     iteration #  6     ecut=    70.00 Ry     beta= 0.50
     Davidson diagonalization with overlap
     ethr =  5.38E-06,  avg # of iterations =  2.0

     total cpu time spent up to now is        8.3 secs

     total energy              =     -45.64094114 Ry
     estimated scf accuracy    <       0.00007737 Ry

     iteration #  7     ecut=    70.00 Ry     beta= 0.50
     Davidson diagonalization with overlap
     ethr =  3.87E-07,  avg # of iterations =  2.0

     total cpu time spent up to now is        9.5 secs

     total energy              =     -45.64095862 Ry
     estimated scf accuracy    <       0.00000067 Ry

     iteration #  8     ecut=    70.00 Ry     beta= 0.50
     Davidson diagonalization with overlap
     ethr =  3.33E-09,  avg # of iterations =  3.0

     total cpu time spent up to now is       10.8 secs

     total energy              =     -45.64095891 Ry
     estimated scf accuracy    <       0.00000009 Ry

     iteration #  9     ecut=    70.00 Ry     beta= 0.50
     Davidson diagonalization with overlap
     ethr =  4.54E-10,  avg # of iterations =  3.0

     total cpu time spent up to now is       12.1 secs

     total energy              =     -45.64095892 Ry
     estimated scf accuracy    <          7.6E-09 Ry

     iteration # 10     ecut=    70.00 Ry     beta= 0.50
     Davidson diagonalization with overlap
     ethr =  3.80E-11,  avg # of iterations =  3.0

     total cpu time spent up to now is       13.4 secs

     total energy              =     -45.64095893 Ry
     estimated scf accuracy    <          9.7E-10 Ry

     iteration # 11     ecut=    70.00 Ry     beta= 0.50
     Davidson diagonalization with overlap
     ethr =  4.85E-12,  avg # of iterations =  2.0

     total cpu time spent up to now is       14.6 secs

     total energy              =     -45.64095893 Ry
     estimated scf accuracy    <          8.3E-10 Ry

     iteration # 12     ecut=    70.00 Ry     beta= 0.50
     Davidson diagonalization with overlap
     ethr =  4.16E-12,  avg # of iterations =  2.0

     total cpu time spent up to now is       15.8 secs

     total energy              =     -45.64095893 Ry
     estimated scf accuracy    <          9.1E-12 Ry

     iteration # 13     ecut=    70.00 Ry     beta= 0.50
     Davidson diagonalization with overlap
     ethr =  1.00E-13,  avg # of iterations =  3.0

     total cpu time spent up to now is       17.3 secs

     total energy              =     -45.64095893 Ry
     estimated scf accuracy    <          1.2E-11 Ry

     iteration # 14     ecut=    70.00 Ry     beta= 0.50
     Davidson diagonalization with overlap
     ethr =  1.00E-13,  avg # of iterations =  2.0

     total cpu time spent up to now is       18.5 secs

     total energy              =     -45.64095893 Ry
     estimated scf accuracy    <          2.1E-12 Ry

     iteration # 15     ecut=    70.00 Ry     beta= 0.50
     Davidson diagonalization with overlap
     ethr =  1.00E-13,  avg # of iterations =  1.0

     total cpu time spent up to now is       19.4 secs

     End of self-consistent calculation

          k = 0.0000 0.0000 0.0000 ( 39559 PWs)   bands (ev):

   -18.9361 -16.3736 -13.9261 -10.7710 -10.2200  -9.3078  -8.8110  -7.7156
    -7.6441  -7.4069

     highest occupied level (ev):    -7.4069

!    total energy              =     -45.64095893 Ry
     estimated scf accuracy    <          4.3E-13 Ry

     The total energy is the sum of the following terms:
     one-electron contribution =    -148.26829806 Ry
     hartree contribution      =      76.72604607 Ry
     xc contribution           =     -18.64734849 Ry
     ewald contribution        =      44.54864156 Ry

     convergence has been achieved in  15 iterations

     Forces acting on atoms (cartesian axes, Ry/au):

     atom    1 type  1   force =    -0.00005175   -0.01017178   -0.00001193
     atom    2 type  1   force =    -0.00476703    0.01508188    0.00000381
     atom    3 type  1   force =     0.00482183    0.01516918   -0.00004504
     atom    4 type  2   force =    -0.00000090    0.00303494    0.00416468
     atom    5 type  2   force =     0.00006050    0.00294315   -0.00409760
     atom    6 type  2   force =    -0.00607245    0.00161397    0.00000047
     atom    7 type  2   force =     0.00602327    0.00156316   -0.00000788
     atom    8 type  2   force =     0.00156783   -0.00731411    0.00960745
     atom    9 type  2   force =     0.00156786   -0.00731231   -0.00960977
     atom   10 type  2   force =    -0.00155957   -0.00730937   -0.00960930
     atom   11 type  2   force =    -0.00158959   -0.00729871    0.00960511

     Total force =     0.036469     Total SCF correction =     0.000001

     Writing output data file ./Propane.save/

     init_run     :      1.16s CPU      1.23s WALL (       1 calls)
     electrons    :     17.77s CPU     18.14s WALL (       1 calls)
     forces       :      0.71s CPU      0.76s WALL (       1 calls)

     Called by init_run:
     wfcinit      :      0.42s CPU      0.43s WALL (       1 calls)
     potinit      :      0.45s CPU      0.49s WALL (       1 calls)
     hinit0       :      0.18s CPU      0.20s WALL (       1 calls)

     Called by electrons:
     c_bands      :      9.65s CPU      9.71s WALL (      15 calls)
     sum_band     :      2.36s CPU      2.38s WALL (      15 calls)
     v_of_rho     :      4.57s CPU      4.85s WALL (      16 calls)
     mix_rho      :      1.32s CPU      1.34s WALL (      15 calls)

     Called by c_bands:
     init_us_2    :      0.16s CPU      0.17s WALL (      31 calls)
     regterg      :      9.45s CPU      9.51s WALL (      15 calls)

     Called by *egterg:
     rdiaghg      :      0.03s CPU      0.03s WALL (      47 calls)
     h_psi        :      8.78s CPU      8.84s WALL (      48 calls)
     g_psi        :      0.02s CPU      0.02s WALL (      32 calls)

     Called by h_psi:
     h_psi:calbec :      0.86s CPU      0.87s WALL (      48 calls)
     vloc_psi     :      7.18s CPU      7.23s WALL (      48 calls)
     add_vuspsi   :      0.69s CPU      0.69s WALL (      48 calls)

     General routines
     calbec       :      0.94s CPU      0.94s WALL (      52 calls)
     fft          :      3.37s CPU      3.46s WALL (     136 calls)
     ffts         :      0.39s CPU      0.39s WALL (      15 calls)
     fftw         :      6.97s CPU      7.02s WALL (     539 calls)

     Parallel routines

     PWSCF        :     19.72s CPU     20.23s WALL


   This run was terminated on:   6:49: 9  24May2021            

=------------------------------------------------------------------------------=
   JOB DONE.
=------------------------------------------------------------------------------=
