
     Program PWSCF v.6.7GPU starts on 24May2021 at  6:47:28 

     This program is part of the open-source Quantum ESPRESSO suite
     for quantum simulation of materials; please cite
         "P. Giannozzi et al., J. Phys.:Condens. Matter 21 395502 (2009);
         "P. Giannozzi et al., J. Phys.:Condens. Matter 29 465901 (2017);
         "P. Giannozzi et al., J. Chem. Phys. 152 154105 (2020);
          URL http://www.quantum-espresso.org", 
     in publications or presentations arising from this work. More details at
     http://www.quantum-espresso.org/quote

     Parallel version (MPI), running on     4 processors

     MPI processes distributed on     1 nodes
     R & G space division:  proc/nbgrp/npool/nimage =       4
     Waiting for input...
     Reading input from standard input
     Message from routine read_cards :
     DEPRECATED: no units specified in CELL_PARAMETERS card

     Current dimensions of program PWSCF are:
     Max number of different atomic species (ntypx) = 10
     Max number of k-points (npk) =  40000
     Max angular momentum in pseudopotentials (lmaxx) =  3

     gamma-point specific algorithms are used

     Subspace diagonalization in iterative solution of the eigenvalue problem:
     one sub-group per band group will be used
     scalapack distributed-memory algorithm (size of sub-group:  2*  2 procs)


     Parallelization info
     --------------------
     sticks:   dense  smooth     PW     G-vecs:    dense   smooth      PW
     Min         951     951    236                44375    44375    5524
     Max         954     954    238                44382    44382    5534
     Sum        3809    3809    949               177509   177509   22119

     Using Slab Decomposition



     bravais-lattice index     =            0
     lattice parameter (alat)  =      20.0000  a.u.
     unit-cell volume          =    8000.0000 (a.u.)^3
     number of atoms/cell      =           11
     number of atomic types    =            2
     number of electrons       =        20.00
     number of Kohn-Sham states=           10
     kinetic-energy cutoff     =      30.0000  Ry
     charge density cutoff     =     120.0000  Ry
     scf convergence threshold =      1.0E-12
     mixing beta               =       0.5000
     number of iterations used =            8  plain     mixing
     Exchange-correlation= PBE
                           (   1   4   3   4   0   0   0)

     celldm(1)=  20.000000  celldm(2)=   0.000000  celldm(3)=   0.000000
     celldm(4)=   0.000000  celldm(5)=   0.000000  celldm(6)=   0.000000

     crystal axes: (cart. coord. in units of alat)
               a(1) = (   1.000000   0.000000   0.000000 )  
               a(2) = (   0.000000   1.000000   0.000000 )  
               a(3) = (   0.000000   0.000000   1.000000 )  

     reciprocal axes: (cart. coord. in units 2 pi/alat)
               b(1) = (  1.000000  0.000000  0.000000 )  
               b(2) = (  0.000000  1.000000  0.000000 )  
               b(3) = (  0.000000  0.000000  1.000000 )  


     PseudoPot. # 1 for C  read from file:
     /home/ciga/builds/pseudo_potentials/C.upf
     MD5 check sum: d80ec9912146af6c4c1760317d1f95e9
     Pseudo is Norm-conserving + core correction, Zval =  4.0
     Generated using ONCVPSP code by D. R. Hamann
     Using radial grid of 1248 points,  4 beta functions with: 
                l(1) =   0
                l(2) =   0
                l(3) =   1
                l(4) =   1

     PseudoPot. # 2 for H  read from file:
     /home/ciga/builds/pseudo_potentials/H.upf
     MD5 check sum: 418cee52d0c413ae40802e6cc37ab9e3
     Pseudo is Norm-conserving, Zval =  1.0
     Generated using ONCVPSP code by D. R. Hamann
     Using radial grid of 1166 points,  3 beta functions with: 
                l(1) =   0
                l(2) =   0
                l(3) =   1

     atomic species   valence    mass     pseudopotential
        C              4.00    12.01070     C ( 1.00)
        H              1.00     1.00794     H ( 1.00)

     No symmetry found



   Cartesian axes

     site n.     atom                  positions (alat units)
         1           C   tau(   1) = (   0.0000000   0.0553973  -0.0000000  )
         2           C   tau(   2) = (  -0.1198181  -0.0248121   0.0000000  )
         3           C   tau(   3) = (   0.1198181  -0.0248121  -0.0000000  )
         4           H   tau(   4) = (   0.0000000   0.1176260   0.0827700  )
         5           H   tau(   5) = (  -0.0000283   0.1176638  -0.0827511  )
         6           H   tau(   6) = (  -0.2038637   0.0353568   0.0000000  )
         7           H   tau(   7) = (   0.2038637   0.0353662   0.0000000  )
         8           H   tau(   8) = (  -0.1253928  -0.0851700   0.0831479  )
         9           H   tau(   9) = (  -0.1253928  -0.0851700  -0.0831479  )
        10           H   tau(  10) = (   0.1253928  -0.0851700  -0.0831479  )
        11           H   tau(  11) = (   0.1254022  -0.0851700   0.0831479  )

     number of k points=     1
                       cart. coord. in units 2pi/alat
        k(    1) = (   0.0000000   0.0000000   0.0000000), wk =   2.0000000

     Dense  grid:    88755 G-vectors     FFT dimensions: (  72,  72,  72)

     Estimated max dynamical RAM per process >      21.65 MB

     Estimated total dynamical RAM >      86.60 MB

     Initial potential from superposition of free atoms

     starting charge   19.99979, renormalised to   20.00000

     negative rho (up, down):  7.544E-03 0.000E+00
     Starting wfcs are   20 randomized atomic wfcs

     total cpu time spent up to now is        0.4 secs

     Self-consistent Calculation

     iteration #  1     ecut=    30.00 Ry     beta= 0.50
     Davidson diagonalization with overlap
     ethr =  1.00E-02,  avg # of iterations =  2.0

     negative rho (up, down):  3.617E-03 0.000E+00

     total cpu time spent up to now is        0.7 secs

     total energy              =     -45.04871357 Ry
     estimated scf accuracy    <       1.13016252 Ry

     iteration #  2     ecut=    30.00 Ry     beta= 0.50
     Davidson diagonalization with overlap
     ethr =  5.65E-03,  avg # of iterations =  2.0

     negative rho (up, down):  1.654E-03 0.000E+00

     total cpu time spent up to now is        0.9 secs

     total energy              =     -45.22016575 Ry
     estimated scf accuracy    <       0.09040711 Ry

     iteration #  3     ecut=    30.00 Ry     beta= 0.50
     Davidson diagonalization with overlap
     ethr =  4.52E-04,  avg # of iterations =  1.0

     negative rho (up, down):  9.058E-05 0.000E+00

     total cpu time spent up to now is        1.1 secs

     total energy              =     -45.21460985 Ry
     estimated scf accuracy    <       0.01902951 Ry

     iteration #  4     ecut=    30.00 Ry     beta= 0.50
     Davidson diagonalization with overlap
     ethr =  9.51E-05,  avg # of iterations =  2.0

     negative rho (up, down):  4.403E-05 0.000E+00

     total cpu time spent up to now is        1.4 secs

     total energy              =     -45.21653293 Ry
     estimated scf accuracy    <       0.00191192 Ry

     iteration #  5     ecut=    30.00 Ry     beta= 0.50
     Davidson diagonalization with overlap
     ethr =  9.56E-06,  avg # of iterations =  2.0

     negative rho (up, down):  8.557E-07 0.000E+00

     total cpu time spent up to now is        1.6 secs

     total energy              =     -45.21703362 Ry
     estimated scf accuracy    <       0.00054100 Ry

     iteration #  6     ecut=    30.00 Ry     beta= 0.50
     Davidson diagonalization with overlap
     ethr =  2.70E-06,  avg # of iterations =  2.0

     negative rho (up, down):  1.687E-08 0.000E+00

     total cpu time spent up to now is        1.9 secs

     total energy              =     -45.21717211 Ry
     estimated scf accuracy    <       0.00006983 Ry

     iteration #  7     ecut=    30.00 Ry     beta= 0.50
     Davidson diagonalization with overlap
     ethr =  3.49E-07,  avg # of iterations =  2.0

     total cpu time spent up to now is        2.1 secs

     total energy              =     -45.21718794 Ry
     estimated scf accuracy    <       0.00000117 Ry

     iteration #  8     ecut=    30.00 Ry     beta= 0.50
     Davidson diagonalization with overlap
     ethr =  5.83E-09,  avg # of iterations =  2.0

     total cpu time spent up to now is        2.4 secs

     total energy              =     -45.21718819 Ry
     estimated scf accuracy    <       0.00000024 Ry

     iteration #  9     ecut=    30.00 Ry     beta= 0.50
     Davidson diagonalization with overlap
     ethr =  1.21E-09,  avg # of iterations =  2.0

     total cpu time spent up to now is        2.7 secs

     total energy              =     -45.21718822 Ry
     estimated scf accuracy    <          4.6E-09 Ry

     iteration # 10     ecut=    30.00 Ry     beta= 0.50
     Davidson diagonalization with overlap
     ethr =  2.29E-11,  avg # of iterations =  3.0

     total cpu time spent up to now is        2.9 secs

     total energy              =     -45.21718823 Ry
     estimated scf accuracy    <          4.5E-10 Ry

     iteration # 11     ecut=    30.00 Ry     beta= 0.50
     Davidson diagonalization with overlap
     ethr =  2.26E-12,  avg # of iterations =  2.0

     total cpu time spent up to now is        3.2 secs

     total energy              =     -45.21718823 Ry
     estimated scf accuracy    <          6.7E-11 Ry

     iteration # 12     ecut=    30.00 Ry     beta= 0.50
     Davidson diagonalization with overlap
     ethr =  3.37E-13,  avg # of iterations =  2.0

     total cpu time spent up to now is        3.5 secs

     total energy              =     -45.21718823 Ry
     estimated scf accuracy    <          7.5E-12 Ry

     iteration # 13     ecut=    30.00 Ry     beta= 0.50
     Davidson diagonalization with overlap
     ethr =  1.00E-13,  avg # of iterations =  2.0

     total cpu time spent up to now is        3.7 secs

     total energy              =     -45.21718823 Ry
     estimated scf accuracy    <          5.1E-12 Ry

     iteration # 14     ecut=    30.00 Ry     beta= 0.50
     Davidson diagonalization with overlap
     ethr =  1.00E-13,  avg # of iterations =  1.0

     total cpu time spent up to now is        3.9 secs

     End of self-consistent calculation

          k = 0.0000 0.0000 0.0000 ( 11060 PWs)   bands (ev):

   -19.1544 -16.5405 -14.0412 -10.7973 -10.2379  -9.2972  -8.8088  -7.6895
    -7.6003  -7.3881

     highest occupied level (ev):    -7.3881

!    total energy              =     -45.21718823 Ry
     estimated scf accuracy    <          6.5E-13 Ry

     The total energy is the sum of the following terms:
     one-electron contribution =    -147.50770423 Ry
     hartree contribution      =      76.25677366 Ry
     xc contribution           =     -18.51489921 Ry
     ewald contribution        =      44.54864155 Ry

     convergence has been achieved in  14 iterations

     Forces acting on atoms (cartesian axes, Ry/au):

     atom    1 type  1   force =    -0.00004602   -0.03252294   -0.00002923
     atom    2 type  1   force =     0.01154078    0.02774152    0.00000388
     atom    3 type  1   force =    -0.01147772    0.02783411   -0.00004438
     atom    4 type  2   force =    -0.00000095    0.01522525    0.01986863
     atom    5 type  2   force =     0.00005518    0.01512996   -0.01978407
     atom    6 type  2   force =    -0.02281732    0.01310790    0.00000048
     atom    7 type  2   force =     0.02275769    0.01305166   -0.00000803
     atom    8 type  2   force =     0.00033943   -0.01989764    0.02656741
     atom    9 type  2   force =     0.00033961   -0.01989566   -0.02656972
     atom   10 type  2   force =    -0.00033124   -0.01989266   -0.02656935
     atom   11 type  2   force =    -0.00035944   -0.01988149    0.02656438

     Total force =     0.099505     Total SCF correction =     0.000001

     Writing output data file ./Propane.save/

     init_run     :      0.30s CPU      0.33s WALL (       1 calls)
     electrons    :      3.46s CPU      3.54s WALL (       1 calls)
     forces       :      0.22s CPU      0.22s WALL (       1 calls)

     Called by init_run:
     wfcinit      :      0.09s CPU      0.09s WALL (       1 calls)
     potinit      :      0.13s CPU      0.15s WALL (       1 calls)
     hinit0       :      0.07s CPU      0.07s WALL (       1 calls)

     Called by electrons:
     c_bands      :      1.71s CPU      1.74s WALL (      14 calls)
     sum_band     :      0.44s CPU      0.45s WALL (      14 calls)
     v_of_rho     :      1.11s CPU      1.17s WALL (      15 calls)
     mix_rho      :      0.22s CPU      0.22s WALL (      14 calls)

     Called by c_bands:
     init_us_2    :      0.04s CPU      0.05s WALL (      29 calls)
     regterg      :      1.66s CPU      1.68s WALL (      14 calls)

     Called by *egterg:
     rdiaghg      :      0.02s CPU      0.02s WALL (      41 calls)
     h_psi        :      1.52s CPU      1.55s WALL (      42 calls)
     g_psi        :      0.00s CPU      0.00s WALL (      27 calls)

     Called by h_psi:
     h_psi:calbec :      0.22s CPU      0.22s WALL (      42 calls)
     vloc_psi     :      1.12s CPU      1.15s WALL (      42 calls)
     add_vuspsi   :      0.17s CPU      0.17s WALL (      42 calls)

     General routines
     calbec       :      0.24s CPU      0.24s WALL (      46 calls)
     fft          :      0.62s CPU      0.64s WALL (     128 calls)
     ffts         :      0.07s CPU      0.07s WALL (      14 calls)
     fftw         :      1.02s CPU      1.04s WALL (     484 calls)

     Parallel routines

     PWSCF        :      4.05s CPU      4.16s WALL


   This run was terminated on:   6:47:32  24May2021            

=------------------------------------------------------------------------------=
   JOB DONE.
=------------------------------------------------------------------------------=
