
     Program PWSCF v.6.7GPU starts on 24May2021 at  6:47:45 

     This program is part of the open-source Quantum ESPRESSO suite
     for quantum simulation of materials; please cite
         "P. Giannozzi et al., J. Phys.:Condens. Matter 21 395502 (2009);
         "P. Giannozzi et al., J. Phys.:Condens. Matter 29 465901 (2017);
         "P. Giannozzi et al., J. Chem. Phys. 152 154105 (2020);
          URL http://www.quantum-espresso.org", 
     in publications or presentations arising from this work. More details at
     http://www.quantum-espresso.org/quote

     Parallel version (MPI), running on     4 processors

     MPI processes distributed on     1 nodes
     R & G space division:  proc/nbgrp/npool/nimage =       4
     Waiting for input...
     Reading input from standard input
     Message from routine read_cards :
     DEPRECATED: no units specified in CELL_PARAMETERS card

     Current dimensions of program PWSCF are:
     Max number of different atomic species (ntypx) = 10
     Max number of k-points (npk) =  40000
     Max angular momentum in pseudopotentials (lmaxx) =  3

     gamma-point specific algorithms are used

     Subspace diagonalization in iterative solution of the eigenvalue problem:
     one sub-group per band group will be used
     scalapack distributed-memory algorithm (size of sub-group:  2*  2 procs)


     Parallelization info
     --------------------
     sticks:   dense  smooth     PW     G-vecs:    dense   smooth      PW
     Min        1429    1429    358                81505    81505   10162
     Max        1432    1432    359                81512    81512   10165
     Sum        5721    5721   1433               326029   326029   40651

     Using Slab Decomposition



     bravais-lattice index     =            0
     lattice parameter (alat)  =      20.0000  a.u.
     unit-cell volume          =    8000.0000 (a.u.)^3
     number of atoms/cell      =           11
     number of atomic types    =            2
     number of electrons       =        20.00
     number of Kohn-Sham states=           10
     kinetic-energy cutoff     =      45.0000  Ry
     charge density cutoff     =     180.0000  Ry
     scf convergence threshold =      1.0E-12
     mixing beta               =       0.5000
     number of iterations used =            8  plain     mixing
     Exchange-correlation= PBE
                           (   1   4   3   4   0   0   0)

     celldm(1)=  20.000000  celldm(2)=   0.000000  celldm(3)=   0.000000
     celldm(4)=   0.000000  celldm(5)=   0.000000  celldm(6)=   0.000000

     crystal axes: (cart. coord. in units of alat)
               a(1) = (   1.000000   0.000000   0.000000 )  
               a(2) = (   0.000000   1.000000   0.000000 )  
               a(3) = (   0.000000   0.000000   1.000000 )  

     reciprocal axes: (cart. coord. in units 2 pi/alat)
               b(1) = (  1.000000  0.000000  0.000000 )  
               b(2) = (  0.000000  1.000000  0.000000 )  
               b(3) = (  0.000000  0.000000  1.000000 )  


     PseudoPot. # 1 for C  read from file:
     /home/ciga/builds/pseudo_potentials/C.upf
     MD5 check sum: d80ec9912146af6c4c1760317d1f95e9
     Pseudo is Norm-conserving + core correction, Zval =  4.0
     Generated using ONCVPSP code by D. R. Hamann
     Using radial grid of 1248 points,  4 beta functions with: 
                l(1) =   0
                l(2) =   0
                l(3) =   1
                l(4) =   1

     PseudoPot. # 2 for H  read from file:
     /home/ciga/builds/pseudo_potentials/H.upf
     MD5 check sum: 418cee52d0c413ae40802e6cc37ab9e3
     Pseudo is Norm-conserving, Zval =  1.0
     Generated using ONCVPSP code by D. R. Hamann
     Using radial grid of 1166 points,  3 beta functions with: 
                l(1) =   0
                l(2) =   0
                l(3) =   1

     atomic species   valence    mass     pseudopotential
        C              4.00    12.01070     C ( 1.00)
        H              1.00     1.00794     H ( 1.00)

     No symmetry found



   Cartesian axes

     site n.     atom                  positions (alat units)
         1           C   tau(   1) = (   0.0000000   0.0553973  -0.0000000  )
         2           C   tau(   2) = (  -0.1198181  -0.0248121   0.0000000  )
         3           C   tau(   3) = (   0.1198181  -0.0248121  -0.0000000  )
         4           H   tau(   4) = (   0.0000000   0.1176260   0.0827700  )
         5           H   tau(   5) = (  -0.0000283   0.1176638  -0.0827511  )
         6           H   tau(   6) = (  -0.2038637   0.0353568   0.0000000  )
         7           H   tau(   7) = (   0.2038637   0.0353662   0.0000000  )
         8           H   tau(   8) = (  -0.1253928  -0.0851700   0.0831479  )
         9           H   tau(   9) = (  -0.1253928  -0.0851700  -0.0831479  )
        10           H   tau(  10) = (   0.1253928  -0.0851700  -0.0831479  )
        11           H   tau(  11) = (   0.1254022  -0.0851700   0.0831479  )

     number of k points=     1
                       cart. coord. in units 2pi/alat
        k(    1) = (   0.0000000   0.0000000   0.0000000), wk =   2.0000000

     Dense  grid:   163015 G-vectors     FFT dimensions: (  90,  90,  90)

     Estimated max dynamical RAM per process >      40.47 MB

     Estimated total dynamical RAM >     161.89 MB

     Initial potential from superposition of free atoms

     starting charge   19.99979, renormalised to   20.00000

     negative rho (up, down):  1.076E-03 0.000E+00
     Starting wfcs are   20 randomized atomic wfcs

     total cpu time spent up to now is        0.7 secs

     Self-consistent Calculation

     iteration #  1     ecut=    45.00 Ry     beta= 0.50
     Davidson diagonalization with overlap
     ethr =  1.00E-02,  avg # of iterations =  2.0

     negative rho (up, down):  4.952E-04 0.000E+00

     total cpu time spent up to now is        1.4 secs

     total energy              =     -45.33038191 Ry
     estimated scf accuracy    <       1.32780302 Ry

     iteration #  2     ecut=    45.00 Ry     beta= 0.50
     Davidson diagonalization with overlap
     ethr =  6.64E-03,  avg # of iterations =  2.0

     negative rho (up, down):  2.299E-04 0.000E+00

     total cpu time spent up to now is        2.0 secs

     total energy              =     -45.56204903 Ry
     estimated scf accuracy    <       0.09730560 Ry

     iteration #  3     ecut=    45.00 Ry     beta= 0.50
     Davidson diagonalization with overlap
     ethr =  4.87E-04,  avg # of iterations =  1.0

     negative rho (up, down):  1.236E-05 0.000E+00

     total cpu time spent up to now is        2.5 secs

     total energy              =     -45.55530331 Ry
     estimated scf accuracy    <       0.02241437 Ry

     iteration #  4     ecut=    45.00 Ry     beta= 0.50
     Davidson diagonalization with overlap
     ethr =  1.12E-04,  avg # of iterations =  2.0

     negative rho (up, down):  6.591E-06 0.000E+00

     total cpu time spent up to now is        3.1 secs

     total energy              =     -45.55755787 Ry
     estimated scf accuracy    <       0.00322001 Ry

     iteration #  5     ecut=    45.00 Ry     beta= 0.50
     Davidson diagonalization with overlap
     ethr =  1.61E-05,  avg # of iterations =  2.0

     negative rho (up, down):  2.324E-07 0.000E+00

     total cpu time spent up to now is        3.7 secs

     total energy              =     -45.55842866 Ry
     estimated scf accuracy    <       0.00099035 Ry

     iteration #  6     ecut=    45.00 Ry     beta= 0.50
     Davidson diagonalization with overlap
     ethr =  4.95E-06,  avg # of iterations =  2.0

     total cpu time spent up to now is        4.4 secs

     total energy              =     -45.55867791 Ry
     estimated scf accuracy    <       0.00007525 Ry

     iteration #  7     ecut=    45.00 Ry     beta= 0.50
     Davidson diagonalization with overlap
     ethr =  3.76E-07,  avg # of iterations =  2.0

     total cpu time spent up to now is        5.0 secs

     total energy              =     -45.55869493 Ry
     estimated scf accuracy    <       0.00000074 Ry

     iteration #  8     ecut=    45.00 Ry     beta= 0.50
     Davidson diagonalization with overlap
     ethr =  3.72E-09,  avg # of iterations =  3.0

     total cpu time spent up to now is        5.6 secs

     total energy              =     -45.55869519 Ry
     estimated scf accuracy    <       0.00000008 Ry

     iteration #  9     ecut=    45.00 Ry     beta= 0.50
     Davidson diagonalization with overlap
     ethr =  4.11E-10,  avg # of iterations =  2.0

     total cpu time spent up to now is        6.3 secs

     total energy              =     -45.55869520 Ry
     estimated scf accuracy    <       0.00000001 Ry

     iteration # 10     ecut=    45.00 Ry     beta= 0.50
     Davidson diagonalization with overlap
     ethr =  5.11E-11,  avg # of iterations =  3.0

     total cpu time spent up to now is        7.0 secs

     total energy              =     -45.55869520 Ry
     estimated scf accuracy    <          2.6E-09 Ry

     iteration # 11     ecut=    45.00 Ry     beta= 0.50
     Davidson diagonalization with overlap
     ethr =  1.29E-11,  avg # of iterations =  2.0

     total cpu time spent up to now is        7.5 secs

     total energy              =     -45.55869520 Ry
     estimated scf accuracy    <          6.1E-10 Ry

     iteration # 12     ecut=    45.00 Ry     beta= 0.50
     Davidson diagonalization with overlap
     ethr =  3.04E-12,  avg # of iterations =  2.0

     total cpu time spent up to now is        8.2 secs

     total energy              =     -45.55869520 Ry
     estimated scf accuracy    <          1.1E-11 Ry

     iteration # 13     ecut=    45.00 Ry     beta= 0.50
     Davidson diagonalization with overlap
     ethr =  1.00E-13,  avg # of iterations =  2.0

     total cpu time spent up to now is        8.8 secs

     total energy              =     -45.55869520 Ry
     estimated scf accuracy    <          3.8E-12 Ry

     iteration # 14     ecut=    45.00 Ry     beta= 0.50
     Davidson diagonalization with overlap
     ethr =  1.00E-13,  avg # of iterations =  2.0

     total cpu time spent up to now is        9.4 secs

     total energy              =     -45.55869520 Ry
     estimated scf accuracy    <          1.0E-12 Ry

     iteration # 15     ecut=    45.00 Ry     beta= 0.50
     Davidson diagonalization with overlap
     ethr =  1.00E-13,  avg # of iterations =  1.0

     total cpu time spent up to now is        9.9 secs

     End of self-consistent calculation

          k = 0.0000 0.0000 0.0000 ( 20326 PWs)   bands (ev):

   -18.9912 -16.4198 -13.9576 -10.7712 -10.2237  -9.3086  -8.8053  -7.7125
    -7.6406  -7.3978

     highest occupied level (ev):    -7.3978

!    total energy              =     -45.55869520 Ry
     estimated scf accuracy    <          1.6E-13 Ry

     The total energy is the sum of the following terms:
     one-electron contribution =    -148.12509926 Ry
     hartree contribution      =      76.63469406 Ry
     xc contribution           =     -18.61693148 Ry
     ewald contribution        =      44.54864147 Ry

     convergence has been achieved in  15 iterations

     Forces acting on atoms (cartesian axes, Ry/au):

     atom    1 type  1   force =    -0.00005190   -0.00575707   -0.00001065
     atom    2 type  1   force =    -0.00800311    0.01269344    0.00000383
     atom    3 type  1   force =     0.00805686    0.01278061   -0.00004548
     atom    4 type  2   force =    -0.00000092    0.00299119    0.00423571
     atom    5 type  2   force =     0.00006101    0.00289957   -0.00416958
     atom    6 type  2   force =    -0.00603327    0.00164048    0.00000047
     atom    7 type  2   force =     0.00598496    0.00159029   -0.00000790
     atom    8 type  2   force =     0.00166817   -0.00721514    0.00954477
     atom    9 type  2   force =     0.00166824   -0.00721330   -0.00954709
     atom   10 type  2   force =    -0.00165997   -0.00721034   -0.00954663
     atom   11 type  2   force =    -0.00169007   -0.00719972    0.00954255

     Total force =     0.034645     Total SCF correction =     0.000001

     Writing output data file ./Propane.save/

     init_run     :      0.62s CPU      0.66s WALL (       1 calls)
     electrons    :      8.90s CPU      9.15s WALL (       1 calls)
     forces       :      0.41s CPU      0.42s WALL (       1 calls)

     Called by init_run:
     wfcinit      :      0.21s CPU      0.22s WALL (       1 calls)
     potinit      :      0.26s CPU      0.29s WALL (       1 calls)
     hinit0       :      0.11s CPU      0.11s WALL (       1 calls)

     Called by electrons:
     c_bands      :      4.61s CPU      4.65s WALL (      15 calls)
     sum_band     :      1.26s CPU      1.27s WALL (      15 calls)
     v_of_rho     :      2.53s CPU      2.73s WALL (      16 calls)
     mix_rho      :      0.58s CPU      0.59s WALL (      15 calls)

     Called by c_bands:
     init_us_2    :      0.08s CPU      0.08s WALL (      31 calls)
     regterg      :      4.48s CPU      4.52s WALL (      15 calls)

     Called by *egterg:
     rdiaghg      :      0.02s CPU      0.02s WALL (      45 calls)
     h_psi        :      4.22s CPU      4.27s WALL (      46 calls)
     g_psi        :      0.01s CPU      0.01s WALL (      30 calls)

     Called by h_psi:
     h_psi:calbec :      0.42s CPU      0.43s WALL (      46 calls)
     vloc_psi     :      3.45s CPU      3.49s WALL (      46 calls)
     add_vuspsi   :      0.33s CPU      0.33s WALL (      46 calls)

     General routines
     calbec       :      0.46s CPU      0.46s WALL (      50 calls)
     fft          :      1.79s CPU      1.85s WALL (     136 calls)
     ffts         :      0.20s CPU      0.20s WALL (      15 calls)
     fftw         :      3.34s CPU      3.38s WALL (     515 calls)

     Parallel routines

     PWSCF        :     10.00s CPU     10.31s WALL


   This run was terminated on:   6:47:55  24May2021            

=------------------------------------------------------------------------------=
   JOB DONE.
=------------------------------------------------------------------------------=
