
     Program PWSCF v.6.7GPU starts on 24May2021 at  5:26:52 

     This program is part of the open-source Quantum ESPRESSO suite
     for quantum simulation of materials; please cite
         "P. Giannozzi et al., J. Phys.:Condens. Matter 21 395502 (2009);
         "P. Giannozzi et al., J. Phys.:Condens. Matter 29 465901 (2017);
         "P. Giannozzi et al., J. Chem. Phys. 152 154105 (2020);
          URL http://www.quantum-espresso.org", 
     in publications or presentations arising from this work. More details at
     http://www.quantum-espresso.org/quote

     Parallel version (MPI), running on     4 processors

     MPI processes distributed on     1 nodes
     R & G space division:  proc/nbgrp/npool/nimage =       4
     Waiting for input...
     Reading input from standard input
     Message from routine read_cards :
     DEPRECATED: no units specified in CELL_PARAMETERS card

     Current dimensions of program PWSCF are:
     Max number of different atomic species (ntypx) = 10
     Max number of k-points (npk) =  40000
     Max angular momentum in pseudopotentials (lmaxx) =  3

     gamma-point specific algorithms are used

     Subspace diagonalization in iterative solution of the eigenvalue problem:
     one sub-group per band group will be used
     scalapack distributed-memory algorithm (size of sub-group:  2*  2 procs)


     Parallelization info
     --------------------
     sticks:   dense  smooth     PW     G-vecs:    dense   smooth      PW
     Min        1429    1429    358                81505    81505   10162
     Max        1432    1432    359                81512    81512   10165
     Sum        5721    5721   1433               326029   326029   40651

     Using Slab Decomposition



     bravais-lattice index     =            0
     lattice parameter (alat)  =      20.0000  a.u.
     unit-cell volume          =    8000.0000 (a.u.)^3
     number of atoms/cell      =           15
     number of atomic types    =            4
     number of electrons       =        48.00
     number of Kohn-Sham states=           24
     kinetic-energy cutoff     =      45.0000  Ry
     charge density cutoff     =     180.0000  Ry
     scf convergence threshold =      1.0E-12
     mixing beta               =       0.5000
     number of iterations used =            8  plain     mixing
     Exchange-correlation= PBE
                           (   1   4   3   4   0   0   0)

     celldm(1)=  20.000000  celldm(2)=   0.000000  celldm(3)=   0.000000
     celldm(4)=   0.000000  celldm(5)=   0.000000  celldm(6)=   0.000000

     crystal axes: (cart. coord. in units of alat)
               a(1) = (   1.000000   0.000000   0.000000 )  
               a(2) = (   0.000000   1.000000   0.000000 )  
               a(3) = (   0.000000   0.000000   1.000000 )  

     reciprocal axes: (cart. coord. in units 2 pi/alat)
               b(1) = (  1.000000  0.000000  0.000000 )  
               b(2) = (  0.000000  1.000000  0.000000 )  
               b(3) = (  0.000000  0.000000  1.000000 )  


     PseudoPot. # 1 for C  read from file:
     /home/ciga/builds/pseudo_potentials/C.upf
     MD5 check sum: d80ec9912146af6c4c1760317d1f95e9
     Pseudo is Norm-conserving + core correction, Zval =  4.0
     Generated using ONCVPSP code by D. R. Hamann
     Using radial grid of 1248 points,  4 beta functions with: 
                l(1) =   0
                l(2) =   0
                l(3) =   1
                l(4) =   1

     PseudoPot. # 2 for H  read from file:
     /home/ciga/builds/pseudo_potentials/H.upf
     MD5 check sum: 418cee52d0c413ae40802e6cc37ab9e3
     Pseudo is Norm-conserving, Zval =  1.0
     Generated using ONCVPSP code by D. R. Hamann
     Using radial grid of 1166 points,  3 beta functions with: 
                l(1) =   0
                l(2) =   0
                l(3) =   1

     PseudoPot. # 3 for O  read from file:
     /home/ciga/builds/pseudo_potentials/O.upf
     MD5 check sum: e357869f07dbe8d608261c380baea405
     Pseudo is Norm-conserving + core correction, Zval =  6.0
     Generated using ONCVPSP code by D. R. Hamann
     Using radial grid of  936 points,  5 beta functions with: 
                l(1) =   0
                l(2) =   0
                l(3) =   1
                l(4) =   1
                l(5) =   2

     PseudoPot. # 4 for N  read from file:
     /home/ciga/builds/pseudo_potentials/N.upf
     MD5 check sum: ff7f9f91e4136e6855b4906c31c1cc72
     Pseudo is Norm-conserving + core correction, Zval =  5.0
     Generated using ONCVPSP code by D. R. Hamann
     Using radial grid of 1058 points,  4 beta functions with: 
                l(1) =   0
                l(2) =   0
                l(3) =   1
                l(4) =   1

     atomic species   valence    mass     pseudopotential
        C              4.00    12.01070     C ( 1.00)
        H              1.00     1.00794     H ( 1.00)
        O              6.00    15.99940     O ( 1.00)
        N              5.00    14.00670     N ( 1.00)

     No symmetry found



   Cartesian axes

     site n.     atom                  positions (alat units)
         1           C   tau(   1) = (   0.0536349   0.0000071  -0.1126219  )
         2           C   tau(   2) = (   0.1446081   0.0000226  -0.0222340  )
         3           H   tau(   3) = (   0.2449698   0.0000322  -0.0455072  )
         4           C   tau(   4) = (  -0.0787270   0.0000091  -0.0720349  )
         5           O   tau(   5) = (  -0.1704400   0.0000124  -0.1427300  )
         6           N   tau(   6) = (  -0.0960007   0.0000165   0.0602103  )
         7           H   tau(   7) = (  -0.1872111   0.0000230   0.0908026  )
         8           C   tau(   8) = (  -0.0046368   0.0000209   0.1541017  )
         9           O   tau(   9) = (  -0.0271538  -0.0000559   0.2672960  )
        10           N   tau(  10) = (   0.1174723   0.0000279   0.1049749  )
        11           H   tau(  11) = (   0.1874074   0.0000469   0.1704591  )
        12           C   tau(  12) = (   0.0808595  -0.0000457  -0.2513572  )
        13           H   tau(  13) = (   0.1829019  -0.0000189  -0.2695985  )
        14           H   tau(  14) = (   0.0387132   0.0830120  -0.2973087  )
        15           H   tau(  15) = (   0.0387815  -0.0831889  -0.2972156  )

     number of k points=     1
                       cart. coord. in units 2pi/alat
        k(    1) = (   0.0000000   0.0000000   0.0000000), wk =   2.0000000

     Dense  grid:   163015 G-vectors     FFT dimensions: (  90,  90,  90)

     Estimated max dynamical RAM per process >      54.62 MB

     Estimated total dynamical RAM >     218.50 MB

     Check: negative core charge=   -0.000036

     Initial potential from superposition of free atoms

     starting charge   47.99970, renormalised to   48.00000

     negative rho (up, down):  5.148E-03 0.000E+00
     Starting wfcs are   42 randomized atomic wfcs

     total cpu time spent up to now is        1.3 secs

     Self-consistent Calculation

     iteration #  1     ecut=    45.00 Ry     beta= 0.50
     Davidson diagonalization with overlap
     ethr =  1.00E-02,  avg # of iterations =  2.0

     negative rho (up, down):  2.385E-03 0.000E+00

     total cpu time spent up to now is        2.7 secs

     total energy              =    -174.18231847 Ry
     estimated scf accuracy    <       1.64607036 Ry

     iteration #  2     ecut=    45.00 Ry     beta= 0.50
     Davidson diagonalization with overlap
     ethr =  3.43E-03,  avg # of iterations =  2.0

     negative rho (up, down):  1.092E-03 0.000E+00

     total cpu time spent up to now is        4.1 secs

     total energy              =    -174.50382698 Ry
     estimated scf accuracy    <       0.16721030 Ry

     iteration #  3     ecut=    45.00 Ry     beta= 0.50
     Davidson diagonalization with overlap
     ethr =  3.48E-04,  avg # of iterations =  2.0

     negative rho (up, down):  2.258E-04 0.000E+00

     total cpu time spent up to now is        5.3 secs

     total energy              =    -174.50920700 Ry
     estimated scf accuracy    <       0.03305719 Ry

     iteration #  4     ecut=    45.00 Ry     beta= 0.50
     Davidson diagonalization with overlap
     ethr =  6.89E-05,  avg # of iterations =  2.0

     negative rho (up, down):  2.038E-05 0.000E+00

     total cpu time spent up to now is        6.6 secs

     total energy              =    -174.51417168 Ry
     estimated scf accuracy    <       0.00311749 Ry

     iteration #  5     ecut=    45.00 Ry     beta= 0.50
     Davidson diagonalization with overlap
     ethr =  6.49E-06,  avg # of iterations =  2.0

     negative rho (up, down):  1.200E-06 0.000E+00

     total cpu time spent up to now is        7.9 secs

     total energy              =    -174.51440788 Ry
     estimated scf accuracy    <       0.00043012 Ry

     iteration #  6     ecut=    45.00 Ry     beta= 0.50
     Davidson diagonalization with overlap
     ethr =  8.96E-07,  avg # of iterations =  5.0

     negative rho (up, down):  1.153E-08 0.000E+00

     total cpu time spent up to now is        9.4 secs

     total energy              =    -174.51451474 Ry
     estimated scf accuracy    <       0.00010602 Ry

     iteration #  7     ecut=    45.00 Ry     beta= 0.50
     Davidson diagonalization with overlap
     ethr =  2.21E-07,  avg # of iterations =  5.0

     total cpu time spent up to now is       10.8 secs

     total energy              =    -174.51453797 Ry
     estimated scf accuracy    <       0.00003858 Ry

     iteration #  8     ecut=    45.00 Ry     beta= 0.50
     Davidson diagonalization with overlap
     ethr =  8.04E-08,  avg # of iterations =  6.0

     total cpu time spent up to now is       12.1 secs

     total energy              =    -174.51454535 Ry
     estimated scf accuracy    <       0.00000317 Ry

     iteration #  9     ecut=    45.00 Ry     beta= 0.50
     Davidson diagonalization with overlap
     ethr =  6.60E-09,  avg # of iterations =  4.0

     total cpu time spent up to now is       13.5 secs

     total energy              =    -174.51454562 Ry
     estimated scf accuracy    <       0.00000102 Ry

     iteration # 10     ecut=    45.00 Ry     beta= 0.50
     Davidson diagonalization with overlap
     ethr =  2.12E-09,  avg # of iterations =  5.0

     total cpu time spent up to now is       14.7 secs

     total energy              =    -174.51454576 Ry
     estimated scf accuracy    <       0.00000009 Ry

     iteration # 11     ecut=    45.00 Ry     beta= 0.50
     Davidson diagonalization with overlap
     ethr =  1.83E-10,  avg # of iterations =  6.0

     total cpu time spent up to now is       16.3 secs

     total energy              =    -174.51454577 Ry
     estimated scf accuracy    <       0.00000012 Ry

     iteration # 12     ecut=    45.00 Ry     beta= 0.50
     Davidson diagonalization with overlap
     ethr =  1.83E-10,  avg # of iterations =  5.0

     total cpu time spent up to now is       17.6 secs

     total energy              =    -174.51454579 Ry
     estimated scf accuracy    <          7.4E-09 Ry

     iteration # 13     ecut=    45.00 Ry     beta= 0.50
     Davidson diagonalization with overlap
     ethr =  1.55E-11,  avg # of iterations =  5.0

     total cpu time spent up to now is       19.1 secs

     total energy              =    -174.51454579 Ry
     estimated scf accuracy    <          1.2E-09 Ry

     iteration # 14     ecut=    45.00 Ry     beta= 0.50
     Davidson diagonalization with overlap
     ethr =  2.46E-12,  avg # of iterations =  5.0

     total cpu time spent up to now is       20.4 secs

     total energy              =    -174.51454579 Ry
     estimated scf accuracy    <          6.6E-10 Ry

     iteration # 15     ecut=    45.00 Ry     beta= 0.50
     Davidson diagonalization with overlap
     ethr =  1.37E-12,  avg # of iterations =  5.0

     total cpu time spent up to now is       21.6 secs

     total energy              =    -174.51454579 Ry
     estimated scf accuracy    <          1.4E-11 Ry

     iteration # 16     ecut=    45.00 Ry     beta= 0.50
     Davidson diagonalization with overlap
     ethr =  1.00E-13,  avg # of iterations =  4.0

     total cpu time spent up to now is       22.9 secs

     total energy              =    -174.51454579 Ry
     estimated scf accuracy    <          5.1E-12 Ry

     iteration # 17     ecut=    45.00 Ry     beta= 0.50
     Davidson diagonalization with overlap
     ethr =  1.00E-13,  avg # of iterations =  1.0

     total cpu time spent up to now is       23.9 secs

     End of self-consistent calculation

          k = 0.0000 0.0000 0.0000 ( 20326 PWs)   bands (ev):

   -26.3953 -25.5584 -23.8902 -22.5206 -19.6233 -17.0412 -16.1421 -15.8062
   -13.4251 -13.2196 -12.1220 -11.1619 -10.7903  -9.9835  -9.6656  -9.5978
    -9.1184  -8.9699  -8.5764  -8.0406  -6.2387  -6.1607  -5.3939  -5.1722

     highest occupied level (ev):    -5.1722

!    total energy              =    -174.51454579 Ry
     estimated scf accuracy    <          6.3E-13 Ry

     The total energy is the sum of the following terms:
     one-electron contribution =    -559.11048673 Ry
     hartree contribution      =     286.86235830 Ry
     xc contribution           =     -54.35179278 Ry
     ewald contribution        =     152.08537541 Ry

     convergence has been achieved in  17 iterations

     Forces acting on atoms (cartesian axes, Ry/au):

     atom    1 type  1   force =    -0.00181853   -0.00002342   -0.00240108
     atom    2 type  1   force =     0.01143627    0.00001948   -0.00592625
     atom    3 type  2   force =    -0.00145877   -0.00000704   -0.00002200
     atom    4 type  1   force =    -0.01011303    0.00004385   -0.01611512
     atom    5 type  3   force =     0.00514983   -0.00001324    0.00596831
     atom    6 type  4   force =    -0.01454729    0.00005927    0.00558481
     atom    7 type  2   force =     0.00342187   -0.00001346   -0.00090329
     atom    8 type  1   force =    -0.00173711   -0.00023240    0.02010378
     atom    9 type  3   force =     0.00134406    0.00009982   -0.00738400
     atom   10 type  4   force =     0.00974517    0.00006595    0.01075059
     atom   11 type  2   force =    -0.00209265   -0.00001277   -0.00247326
     atom   12 type  1   force =     0.00127829    0.00001142   -0.00777568
     atom   13 type  2   force =    -0.00141542    0.00000599    0.00025498
     atom   14 type  2   force =     0.00040825   -0.00145068    0.00018082
     atom   15 type  2   force =     0.00039906    0.00144722    0.00015739

     Total force =     0.040124     Total SCF correction =     0.000002

     Writing output data file ./Thymine.save/

     init_run     :      1.11s CPU      1.17s WALL (       1 calls)
     electrons    :     22.17s CPU     22.59s WALL (       1 calls)
     forces       :      0.71s CPU      0.72s WALL (       1 calls)

     Called by init_run:
     wfcinit      :      0.54s CPU      0.55s WALL (       1 calls)
     potinit      :      0.33s CPU      0.37s WALL (       1 calls)
     hinit0       :      0.19s CPU      0.19s WALL (       1 calls)

     Called by electrons:
     c_bands      :     15.84s CPU     15.96s WALL (      17 calls)
     sum_band     :      2.54s CPU      2.56s WALL (      17 calls)
     v_of_rho     :      3.16s CPU      3.46s WALL (      18 calls)
     mix_rho      :      0.68s CPU      0.69s WALL (      17 calls)

     Called by c_bands:
     init_us_2    :      0.17s CPU      0.18s WALL (      35 calls)
     regterg      :     15.59s CPU     15.70s WALL (      17 calls)

     Called by *egterg:
     rdiaghg      :      0.10s CPU      0.10s WALL (      83 calls)
     h_psi        :     13.24s CPU     13.34s WALL (      84 calls)
     g_psi        :      0.03s CPU      0.03s WALL (      66 calls)

     Called by h_psi:
     h_psi:calbec :      1.98s CPU      1.99s WALL (      84 calls)
     vloc_psi     :      9.65s CPU      9.73s WALL (      84 calls)
     add_vuspsi   :      1.54s CPU      1.55s WALL (      84 calls)

     General routines
     calbec       :      2.15s CPU      2.15s WALL (      88 calls)
     fft          :      2.00s CPU      2.06s WALL (     152 calls)
     ffts         :      0.23s CPU      0.23s WALL (      17 calls)
     fftw         :      9.29s CPU      9.36s WALL (    1410 calls)

     Parallel routines

     PWSCF        :     24.13s CPU     24.65s WALL


   This run was terminated on:   5:27:17  24May2021            

=------------------------------------------------------------------------------=
   JOB DONE.
=------------------------------------------------------------------------------=
