
     Program PWSCF v.6.7GPU starts on 24May2021 at  5:26: 7 

     This program is part of the open-source Quantum ESPRESSO suite
     for quantum simulation of materials; please cite
         "P. Giannozzi et al., J. Phys.:Condens. Matter 21 395502 (2009);
         "P. Giannozzi et al., J. Phys.:Condens. Matter 29 465901 (2017);
         "P. Giannozzi et al., J. Chem. Phys. 152 154105 (2020);
          URL http://www.quantum-espresso.org", 
     in publications or presentations arising from this work. More details at
     http://www.quantum-espresso.org/quote

     Parallel version (MPI), running on     4 processors

     MPI processes distributed on     1 nodes
     R & G space division:  proc/nbgrp/npool/nimage =       4
     Waiting for input...
     Reading input from standard input
     Message from routine read_cards :
     DEPRECATED: no units specified in CELL_PARAMETERS card

     Current dimensions of program PWSCF are:
     Max number of different atomic species (ntypx) = 10
     Max number of k-points (npk) =  40000
     Max angular momentum in pseudopotentials (lmaxx) =  3

     gamma-point specific algorithms are used

     Subspace diagonalization in iterative solution of the eigenvalue problem:
     one sub-group per band group will be used
     scalapack distributed-memory algorithm (size of sub-group:  2*  2 procs)


     Parallelization info
     --------------------
     sticks:   dense  smooth     PW     G-vecs:    dense   smooth      PW
     Min         951     951    236                44375    44375    5524
     Max         954     954    238                44382    44382    5534
     Sum        3809    3809    949               177509   177509   22119

     Using Slab Decomposition



     bravais-lattice index     =            0
     lattice parameter (alat)  =      20.0000  a.u.
     unit-cell volume          =    8000.0000 (a.u.)^3
     number of atoms/cell      =           15
     number of atomic types    =            4
     number of electrons       =        48.00
     number of Kohn-Sham states=           24
     kinetic-energy cutoff     =      30.0000  Ry
     charge density cutoff     =     120.0000  Ry
     scf convergence threshold =      1.0E-12
     mixing beta               =       0.5000
     number of iterations used =            8  plain     mixing
     Exchange-correlation= PBE
                           (   1   4   3   4   0   0   0)

     celldm(1)=  20.000000  celldm(2)=   0.000000  celldm(3)=   0.000000
     celldm(4)=   0.000000  celldm(5)=   0.000000  celldm(6)=   0.000000

     crystal axes: (cart. coord. in units of alat)
               a(1) = (   1.000000   0.000000   0.000000 )  
               a(2) = (   0.000000   1.000000   0.000000 )  
               a(3) = (   0.000000   0.000000   1.000000 )  

     reciprocal axes: (cart. coord. in units 2 pi/alat)
               b(1) = (  1.000000  0.000000  0.000000 )  
               b(2) = (  0.000000  1.000000  0.000000 )  
               b(3) = (  0.000000  0.000000  1.000000 )  


     PseudoPot. # 1 for C  read from file:
     /home/ciga/builds/pseudo_potentials/C.upf
     MD5 check sum: d80ec9912146af6c4c1760317d1f95e9
     Pseudo is Norm-conserving + core correction, Zval =  4.0
     Generated using ONCVPSP code by D. R. Hamann
     Using radial grid of 1248 points,  4 beta functions with: 
                l(1) =   0
                l(2) =   0
                l(3) =   1
                l(4) =   1

     PseudoPot. # 2 for H  read from file:
     /home/ciga/builds/pseudo_potentials/H.upf
     MD5 check sum: 418cee52d0c413ae40802e6cc37ab9e3
     Pseudo is Norm-conserving, Zval =  1.0
     Generated using ONCVPSP code by D. R. Hamann
     Using radial grid of 1166 points,  3 beta functions with: 
                l(1) =   0
                l(2) =   0
                l(3) =   1

     PseudoPot. # 3 for O  read from file:
     /home/ciga/builds/pseudo_potentials/O.upf
     MD5 check sum: e357869f07dbe8d608261c380baea405
     Pseudo is Norm-conserving + core correction, Zval =  6.0
     Generated using ONCVPSP code by D. R. Hamann
     Using radial grid of  936 points,  5 beta functions with: 
                l(1) =   0
                l(2) =   0
                l(3) =   1
                l(4) =   1
                l(5) =   2

     PseudoPot. # 4 for N  read from file:
     /home/ciga/builds/pseudo_potentials/N.upf
     MD5 check sum: ff7f9f91e4136e6855b4906c31c1cc72
     Pseudo is Norm-conserving + core correction, Zval =  5.0
     Generated using ONCVPSP code by D. R. Hamann
     Using radial grid of 1058 points,  4 beta functions with: 
                l(1) =   0
                l(2) =   0
                l(3) =   1
                l(4) =   1

     atomic species   valence    mass     pseudopotential
        C              4.00    12.01070     C ( 1.00)
        H              1.00     1.00794     H ( 1.00)
        O              6.00    15.99940     O ( 1.00)
        N              5.00    14.00670     N ( 1.00)

     No symmetry found



   Cartesian axes

     site n.     atom                  positions (alat units)
         1           C   tau(   1) = (   0.0536349   0.0000071  -0.1126219  )
         2           C   tau(   2) = (   0.1446081   0.0000226  -0.0222340  )
         3           H   tau(   3) = (   0.2449698   0.0000322  -0.0455072  )
         4           C   tau(   4) = (  -0.0787270   0.0000091  -0.0720349  )
         5           O   tau(   5) = (  -0.1704400   0.0000124  -0.1427300  )
         6           N   tau(   6) = (  -0.0960007   0.0000165   0.0602103  )
         7           H   tau(   7) = (  -0.1872111   0.0000230   0.0908026  )
         8           C   tau(   8) = (  -0.0046368   0.0000209   0.1541017  )
         9           O   tau(   9) = (  -0.0271538  -0.0000559   0.2672960  )
        10           N   tau(  10) = (   0.1174723   0.0000279   0.1049749  )
        11           H   tau(  11) = (   0.1874074   0.0000469   0.1704591  )
        12           C   tau(  12) = (   0.0808595  -0.0000457  -0.2513572  )
        13           H   tau(  13) = (   0.1829019  -0.0000189  -0.2695985  )
        14           H   tau(  14) = (   0.0387132   0.0830120  -0.2973087  )
        15           H   tau(  15) = (   0.0387815  -0.0831889  -0.2972156  )

     number of k points=     1
                       cart. coord. in units 2pi/alat
        k(    1) = (   0.0000000   0.0000000   0.0000000), wk =   2.0000000

     Dense  grid:    88755 G-vectors     FFT dimensions: (  72,  72,  72)

     Estimated max dynamical RAM per process >      30.04 MB

     Estimated total dynamical RAM >     120.14 MB

     Check: negative core charge=   -0.000179

     Initial potential from superposition of free atoms

     starting charge   47.99970, renormalised to   48.00000

     negative rho (up, down):  8.886E-02 0.000E+00
     Starting wfcs are   42 randomized atomic wfcs

     total cpu time spent up to now is        0.7 secs

     Self-consistent Calculation

     iteration #  1     ecut=    30.00 Ry     beta= 0.50
     Davidson diagonalization with overlap
     ethr =  1.00E-02,  avg # of iterations =  2.0

     negative rho (up, down):  4.192E-02 0.000E+00

     total cpu time spent up to now is        1.3 secs

     total energy              =    -172.50743583 Ry
     estimated scf accuracy    <       1.10750516 Ry

     iteration #  2     ecut=    30.00 Ry     beta= 0.50
     Davidson diagonalization with overlap
     ethr =  2.31E-03,  avg # of iterations =  2.0

     negative rho (up, down):  1.653E-02 0.000E+00

     total cpu time spent up to now is        1.9 secs

     total energy              =    -172.64431788 Ry
     estimated scf accuracy    <       0.12525175 Ry

     iteration #  3     ecut=    30.00 Ry     beta= 0.50
     Davidson diagonalization with overlap
     ethr =  2.61E-04,  avg # of iterations =  2.0

     negative rho (up, down):  1.307E-03 0.000E+00

     total cpu time spent up to now is        2.3 secs

     total energy              =    -172.64503846 Ry
     estimated scf accuracy    <       0.02102970 Ry

     iteration #  4     ecut=    30.00 Ry     beta= 0.50
     Davidson diagonalization with overlap
     ethr =  4.38E-05,  avg # of iterations =  2.0

     negative rho (up, down):  2.513E-04 0.000E+00

     total cpu time spent up to now is        2.9 secs

     total energy              =    -172.64762308 Ry
     estimated scf accuracy    <       0.00168192 Ry

     iteration #  5     ecut=    30.00 Ry     beta= 0.50
     Davidson diagonalization with overlap
     ethr =  3.50E-06,  avg # of iterations =  5.0

     negative rho (up, down):  5.083E-05 0.000E+00

     total cpu time spent up to now is        3.5 secs

     total energy              =    -172.64805130 Ry
     estimated scf accuracy    <       0.00040752 Ry

     iteration #  6     ecut=    30.00 Ry     beta= 0.50
     Davidson diagonalization with overlap
     ethr =  8.49E-07,  avg # of iterations =  5.0

     negative rho (up, down):  7.059E-07 0.000E+00

     total cpu time spent up to now is        4.0 secs

     total energy              =    -172.64811747 Ry
     estimated scf accuracy    <       0.00004080 Ry

     iteration #  7     ecut=    30.00 Ry     beta= 0.50
     Davidson diagonalization with overlap
     ethr =  8.50E-08,  avg # of iterations =  5.0

     total cpu time spent up to now is        4.6 secs

     total energy              =    -172.64812442 Ry
     estimated scf accuracy    <       0.00001182 Ry

     iteration #  8     ecut=    30.00 Ry     beta= 0.50
     Davidson diagonalization with overlap
     ethr =  2.46E-08,  avg # of iterations =  5.0

     total cpu time spent up to now is        5.2 secs

     total energy              =    -172.64812594 Ry
     estimated scf accuracy    <       0.00000139 Ry

     iteration #  9     ecut=    30.00 Ry     beta= 0.50
     Davidson diagonalization with overlap
     ethr =  2.90E-09,  avg # of iterations =  5.0

     total cpu time spent up to now is        5.8 secs

     total energy              =    -172.64812575 Ry
     estimated scf accuracy    <       0.00000027 Ry

     iteration # 10     ecut=    30.00 Ry     beta= 0.50
     Davidson diagonalization with overlap
     ethr =  5.68E-10,  avg # of iterations =  5.0

     total cpu time spent up to now is        6.4 secs

     total energy              =    -172.64812558 Ry
     estimated scf accuracy    <       0.00000010 Ry

     iteration # 11     ecut=    30.00 Ry     beta= 0.50
     Davidson diagonalization with overlap
     ethr =  2.17E-10,  avg # of iterations =  5.0

     total cpu time spent up to now is        6.9 secs

     total energy              =    -172.64812557 Ry
     estimated scf accuracy    <          3.0E-09 Ry

     iteration # 12     ecut=    30.00 Ry     beta= 0.50
     Davidson diagonalization with overlap
     ethr =  6.21E-12,  avg # of iterations =  5.0

     total cpu time spent up to now is        7.6 secs

     total energy              =    -172.64812556 Ry
     estimated scf accuracy    <          1.2E-09 Ry

     iteration # 13     ecut=    30.00 Ry     beta= 0.50
     Davidson diagonalization with overlap
     ethr =  2.46E-12,  avg # of iterations =  4.0

     total cpu time spent up to now is        8.2 secs

     total energy              =    -172.64812556 Ry
     estimated scf accuracy    <          2.9E-10 Ry

     iteration # 14     ecut=    30.00 Ry     beta= 0.50
     Davidson diagonalization with overlap
     ethr =  6.01E-13,  avg # of iterations =  2.0

     total cpu time spent up to now is        8.7 secs

     total energy              =    -172.64812556 Ry
     estimated scf accuracy    <          5.7E-11 Ry

     iteration # 15     ecut=    30.00 Ry     beta= 0.50
     Davidson diagonalization with overlap
     ethr =  1.19E-13,  avg # of iterations =  5.0

     total cpu time spent up to now is        9.4 secs

     total energy              =    -172.64812556 Ry
     estimated scf accuracy    <          3.0E-11 Ry

     iteration # 16     ecut=    30.00 Ry     beta= 0.50
     Davidson diagonalization with overlap
     ethr =  1.00E-13,  avg # of iterations =  2.0

     total cpu time spent up to now is        9.8 secs

     total energy              =    -172.64812556 Ry
     estimated scf accuracy    <          1.9E-12 Ry

     iteration # 17     ecut=    30.00 Ry     beta= 0.50
     Davidson diagonalization with overlap
     ethr =  1.00E-13,  avg # of iterations =  2.0

     total cpu time spent up to now is       10.3 secs

     End of self-consistent calculation

          k = 0.0000 0.0000 0.0000 ( 11060 PWs)   bands (ev):

   -27.3018 -26.6885 -24.5948 -23.0707 -19.9290 -17.2917 -16.3440 -16.0978
   -13.5846 -13.3246 -12.2037 -11.2702 -11.1156 -10.3507  -9.8475  -9.7484
    -9.1465  -9.0460  -8.6285  -8.0951  -6.2684  -6.2620  -5.4431  -5.1734

     highest occupied level (ev):    -5.1734

!    total energy              =    -172.64812556 Ry
     estimated scf accuracy    <          5.7E-13 Ry

     The total energy is the sum of the following terms:
     one-electron contribution =    -554.81933063 Ry
     hartree contribution      =     283.91132287 Ry
     xc contribution           =     -53.82549321 Ry
     ewald contribution        =     152.08537541 Ry

     convergence has been achieved in  17 iterations

     Forces acting on atoms (cartesian axes, Ry/au):

     atom    1 type  1   force =    -0.01220298   -0.00001685   -0.01021470
     atom    2 type  1   force =    -0.00494186    0.00002803    0.01425261
     atom    3 type  2   force =     0.01983082    0.00000854   -0.00395215
     atom    4 type  1   force =     0.09525429    0.00005707    0.07859302
     atom    5 type  3   force =    -0.10302927    0.00001168   -0.08316033
     atom    6 type  4   force =     0.04683214    0.00008822   -0.01747536
     atom    7 type  2   force =    -0.04339286    0.00000268    0.01570016
     atom    8 type  1   force =     0.02863047   -0.00012713   -0.12519177
     atom    9 type  3   force =    -0.01663780   -0.00022322    0.12503501
     atom   10 type  4   force =    -0.04167280    0.00009241   -0.02571510
     atom   11 type  2   force =     0.03372259    0.00001097    0.03190068
     atom   12 type  1   force =    -0.00480291    0.00003651    0.02015164
     atom   13 type  2   force =     0.01880319    0.00002306   -0.00288080
     atom   14 type  2   force =    -0.00819843    0.01501201   -0.00851888
     atom   15 type  2   force =    -0.00819458   -0.01500398   -0.00852402

     Total force =     0.277085     Total SCF correction =     0.000002

     Writing output data file ./Thymine.save/

     init_run     :      0.56s CPU      0.58s WALL (       1 calls)
     electrons    :      9.35s CPU      9.58s WALL (       1 calls)
     forces       :      0.38s CPU      0.39s WALL (       1 calls)

     Called by init_run:
     wfcinit      :      0.22s CPU      0.23s WALL (       1 calls)
     potinit      :      0.19s CPU      0.20s WALL (       1 calls)
     hinit0       :      0.13s CPU      0.13s WALL (       1 calls)

     Called by electrons:
     c_bands      :      6.63s CPU      6.68s WALL (      17 calls)
     sum_band     :      0.98s CPU      0.99s WALL (      17 calls)
     v_of_rho     :      1.49s CPU      1.65s WALL (      18 calls)
     mix_rho      :      0.28s CPU      0.28s WALL (      17 calls)

     Called by c_bands:
     init_us_2    :      0.09s CPU      0.10s WALL (      35 calls)
     regterg      :      6.50s CPU      6.54s WALL (      17 calls)

     Called by *egterg:
     rdiaghg      :      0.10s CPU      0.10s WALL (      80 calls)
     h_psi        :      5.25s CPU      5.29s WALL (      81 calls)
     g_psi        :      0.01s CPU      0.01s WALL (      63 calls)

     Called by h_psi:
     h_psi:calbec :      1.08s CPU      1.09s WALL (      81 calls)
     vloc_psi     :      3.31s CPU      3.35s WALL (      81 calls)
     add_vuspsi   :      0.83s CPU      0.84s WALL (      81 calls)

     General routines
     calbec       :      1.17s CPU      1.17s WALL (      85 calls)
     fft          :      0.75s CPU      0.79s WALL (     152 calls)
     ffts         :      0.09s CPU      0.09s WALL (      17 calls)
     fftw         :      3.03s CPU      3.06s WALL (    1392 calls)

     Parallel routines

     PWSCF        :     10.42s CPU     10.71s WALL


   This run was terminated on:   5:26:18  24May2021            

=------------------------------------------------------------------------------=
   JOB DONE.
=------------------------------------------------------------------------------=
