
     Program PWSCF v.6.7GPU starts on 24May2021 at  5:28:20 

     This program is part of the open-source Quantum ESPRESSO suite
     for quantum simulation of materials; please cite
         "P. Giannozzi et al., J. Phys.:Condens. Matter 21 395502 (2009);
         "P. Giannozzi et al., J. Phys.:Condens. Matter 29 465901 (2017);
         "P. Giannozzi et al., J. Chem. Phys. 152 154105 (2020);
          URL http://www.quantum-espresso.org", 
     in publications or presentations arising from this work. More details at
     http://www.quantum-espresso.org/quote

     Parallel version (MPI), running on     4 processors

     MPI processes distributed on     1 nodes
     R & G space division:  proc/nbgrp/npool/nimage =       4
     Waiting for input...
     Reading input from standard input
     Message from routine read_cards :
     DEPRECATED: no units specified in CELL_PARAMETERS card

     Current dimensions of program PWSCF are:
     Max number of different atomic species (ntypx) = 10
     Max number of k-points (npk) =  40000
     Max angular momentum in pseudopotentials (lmaxx) =  3

     gamma-point specific algorithms are used

     Subspace diagonalization in iterative solution of the eigenvalue problem:
     one sub-group per band group will be used
     scalapack distributed-memory algorithm (size of sub-group:  2*  2 procs)


     Parallelization info
     --------------------
     sticks:   dense  smooth     PW     G-vecs:    dense   smooth      PW
     Min        1910    1910    473               125614   125614   15665
     Max        1912    1912    476               125624   125624   15668
     Sum        7645    7645   1901               502479   502479   62669

     Using Slab Decomposition



     bravais-lattice index     =            0
     lattice parameter (alat)  =      20.0000  a.u.
     unit-cell volume          =    8000.0000 (a.u.)^3
     number of atoms/cell      =           15
     number of atomic types    =            4
     number of electrons       =        48.00
     number of Kohn-Sham states=           24
     kinetic-energy cutoff     =      60.0000  Ry
     charge density cutoff     =     240.0000  Ry
     scf convergence threshold =      1.0E-12
     mixing beta               =       0.5000
     number of iterations used =            8  plain     mixing
     Exchange-correlation= PBE
                           (   1   4   3   4   0   0   0)

     celldm(1)=  20.000000  celldm(2)=   0.000000  celldm(3)=   0.000000
     celldm(4)=   0.000000  celldm(5)=   0.000000  celldm(6)=   0.000000

     crystal axes: (cart. coord. in units of alat)
               a(1) = (   1.000000   0.000000   0.000000 )  
               a(2) = (   0.000000   1.000000   0.000000 )  
               a(3) = (   0.000000   0.000000   1.000000 )  

     reciprocal axes: (cart. coord. in units 2 pi/alat)
               b(1) = (  1.000000  0.000000  0.000000 )  
               b(2) = (  0.000000  1.000000  0.000000 )  
               b(3) = (  0.000000  0.000000  1.000000 )  


     PseudoPot. # 1 for C  read from file:
     /home/ciga/builds/pseudo_potentials/C.upf
     MD5 check sum: d80ec9912146af6c4c1760317d1f95e9
     Pseudo is Norm-conserving + core correction, Zval =  4.0
     Generated using ONCVPSP code by D. R. Hamann
     Using radial grid of 1248 points,  4 beta functions with: 
                l(1) =   0
                l(2) =   0
                l(3) =   1
                l(4) =   1

     PseudoPot. # 2 for H  read from file:
     /home/ciga/builds/pseudo_potentials/H.upf
     MD5 check sum: 418cee52d0c413ae40802e6cc37ab9e3
     Pseudo is Norm-conserving, Zval =  1.0
     Generated using ONCVPSP code by D. R. Hamann
     Using radial grid of 1166 points,  3 beta functions with: 
                l(1) =   0
                l(2) =   0
                l(3) =   1

     PseudoPot. # 3 for O  read from file:
     /home/ciga/builds/pseudo_potentials/O.upf
     MD5 check sum: e357869f07dbe8d608261c380baea405
     Pseudo is Norm-conserving + core correction, Zval =  6.0
     Generated using ONCVPSP code by D. R. Hamann
     Using radial grid of  936 points,  5 beta functions with: 
                l(1) =   0
                l(2) =   0
                l(3) =   1
                l(4) =   1
                l(5) =   2

     PseudoPot. # 4 for N  read from file:
     /home/ciga/builds/pseudo_potentials/N.upf
     MD5 check sum: ff7f9f91e4136e6855b4906c31c1cc72
     Pseudo is Norm-conserving + core correction, Zval =  5.0
     Generated using ONCVPSP code by D. R. Hamann
     Using radial grid of 1058 points,  4 beta functions with: 
                l(1) =   0
                l(2) =   0
                l(3) =   1
                l(4) =   1

     atomic species   valence    mass     pseudopotential
        C              4.00    12.01070     C ( 1.00)
        H              1.00     1.00794     H ( 1.00)
        O              6.00    15.99940     O ( 1.00)
        N              5.00    14.00670     N ( 1.00)

     No symmetry found



   Cartesian axes

     site n.     atom                  positions (alat units)
         1           C   tau(   1) = (   0.0536349   0.0000071  -0.1126219  )
         2           C   tau(   2) = (   0.1446081   0.0000226  -0.0222340  )
         3           H   tau(   3) = (   0.2449698   0.0000322  -0.0455072  )
         4           C   tau(   4) = (  -0.0787270   0.0000091  -0.0720349  )
         5           O   tau(   5) = (  -0.1704400   0.0000124  -0.1427300  )
         6           N   tau(   6) = (  -0.0960007   0.0000165   0.0602103  )
         7           H   tau(   7) = (  -0.1872111   0.0000230   0.0908026  )
         8           C   tau(   8) = (  -0.0046368   0.0000209   0.1541017  )
         9           O   tau(   9) = (  -0.0271538  -0.0000559   0.2672960  )
        10           N   tau(  10) = (   0.1174723   0.0000279   0.1049749  )
        11           H   tau(  11) = (   0.1874074   0.0000469   0.1704591  )
        12           C   tau(  12) = (   0.0808595  -0.0000457  -0.2513572  )
        13           H   tau(  13) = (   0.1829019  -0.0000189  -0.2695985  )
        14           H   tau(  14) = (   0.0387132   0.0830120  -0.2973087  )
        15           H   tau(  15) = (   0.0387815  -0.0831889  -0.2972156  )

     number of k points=     1
                       cart. coord. in units 2pi/alat
        k(    1) = (   0.0000000   0.0000000   0.0000000), wk =   2.0000000

     Dense  grid:   251240 G-vectors     FFT dimensions: ( 100, 100, 100)

     Estimated max dynamical RAM per process >      80.40 MB

     Estimated total dynamical RAM >     321.62 MB

     Check: negative core charge=   -0.000005

     Initial potential from superposition of free atoms

     starting charge   47.99970, renormalised to   48.00000

     negative rho (up, down):  3.790E-04 0.000E+00
     Starting wfcs are   42 randomized atomic wfcs

     total cpu time spent up to now is        1.7 secs

     Self-consistent Calculation

     iteration #  1     ecut=    60.00 Ry     beta= 0.50
     Davidson diagonalization with overlap
     ethr =  1.00E-02,  avg # of iterations =  2.0

     negative rho (up, down):  1.456E-04 0.000E+00

     total cpu time spent up to now is        3.6 secs

     total energy              =    -174.50166893 Ry
     estimated scf accuracy    <       1.81294233 Ry

     iteration #  2     ecut=    60.00 Ry     beta= 0.50
     Davidson diagonalization with overlap
     ethr =  3.78E-03,  avg # of iterations =  2.0

     negative rho (up, down):  5.474E-05 0.000E+00

     total cpu time spent up to now is        5.4 secs

     total energy              =    -174.87611806 Ry
     estimated scf accuracy    <       0.18264778 Ry

     iteration #  3     ecut=    60.00 Ry     beta= 0.50
     Davidson diagonalization with overlap
     ethr =  3.81E-04,  avg # of iterations =  2.0

     negative rho (up, down):  1.226E-05 0.000E+00

     total cpu time spent up to now is        7.1 secs

     total energy              =    -174.88435926 Ry
     estimated scf accuracy    <       0.03665089 Ry

     iteration #  4     ecut=    60.00 Ry     beta= 0.50
     Davidson diagonalization with overlap
     ethr =  7.64E-05,  avg # of iterations =  2.0

     negative rho (up, down):  8.330E-07 0.000E+00

     total cpu time spent up to now is        8.9 secs

     total energy              =    -174.88978623 Ry
     estimated scf accuracy    <       0.00317087 Ry

     iteration #  5     ecut=    60.00 Ry     beta= 0.50
     Davidson diagonalization with overlap
     ethr =  6.61E-06,  avg # of iterations =  4.0

     negative rho (up, down):  6.727E-08 0.000E+00

     total cpu time spent up to now is       10.7 secs

     total energy              =    -174.88998249 Ry
     estimated scf accuracy    <       0.00063656 Ry

     iteration #  6     ecut=    60.00 Ry     beta= 0.50
     Davidson diagonalization with overlap
     ethr =  1.33E-06,  avg # of iterations =  3.0

     total cpu time spent up to now is       12.7 secs

     total energy              =    -174.89016218 Ry
     estimated scf accuracy    <       0.00010209 Ry

     iteration #  7     ecut=    60.00 Ry     beta= 0.50
     Davidson diagonalization with overlap
     ethr =  2.13E-07,  avg # of iterations =  4.0

     total cpu time spent up to now is       14.4 secs

     total energy              =    -174.89017657 Ry
     estimated scf accuracy    <       0.00001071 Ry

     iteration #  8     ecut=    60.00 Ry     beta= 0.50
     Davidson diagonalization with overlap
     ethr =  2.23E-08,  avg # of iterations =  4.0

     total cpu time spent up to now is       16.6 secs

     total energy              =    -174.89018007 Ry
     estimated scf accuracy    <       0.00000276 Ry

     iteration #  9     ecut=    60.00 Ry     beta= 0.50
     Davidson diagonalization with overlap
     ethr =  5.75E-09,  avg # of iterations =  3.0

     total cpu time spent up to now is       18.4 secs

     total energy              =    -174.89018067 Ry
     estimated scf accuracy    <       0.00000017 Ry

     iteration # 10     ecut=    60.00 Ry     beta= 0.50
     Davidson diagonalization with overlap
     ethr =  3.53E-10,  avg # of iterations =  6.0

     total cpu time spent up to now is       20.5 secs

     total energy              =    -174.89018068 Ry
     estimated scf accuracy    <       0.00000018 Ry

     iteration # 11     ecut=    60.00 Ry     beta= 0.50
     Davidson diagonalization with overlap
     ethr =  3.53E-10,  avg # of iterations =  5.0

     total cpu time spent up to now is       22.4 secs

     total energy              =    -174.89018071 Ry
     estimated scf accuracy    <       0.00000001 Ry

     iteration # 12     ecut=    60.00 Ry     beta= 0.50
     Davidson diagonalization with overlap
     ethr =  2.20E-11,  avg # of iterations =  5.0

     total cpu time spent up to now is       24.6 secs

     total energy              =    -174.89018071 Ry
     estimated scf accuracy    <       0.00000002 Ry

     iteration # 13     ecut=    60.00 Ry     beta= 0.50
     Davidson diagonalization with overlap
     ethr =  2.20E-11,  avg # of iterations =  5.0

     total cpu time spent up to now is       26.4 secs

     total energy              =    -174.89018072 Ry
     estimated scf accuracy    <          1.1E-09 Ry

     iteration # 14     ecut=    60.00 Ry     beta= 0.50
     Davidson diagonalization with overlap
     ethr =  2.27E-12,  avg # of iterations =  6.0

     total cpu time spent up to now is       28.5 secs

     total energy              =    -174.89018072 Ry
     estimated scf accuracy    <          1.9E-10 Ry

     iteration # 15     ecut=    60.00 Ry     beta= 0.50
     Davidson diagonalization with overlap
     ethr =  4.01E-13,  avg # of iterations =  5.0

     total cpu time spent up to now is       30.2 secs

     total energy              =    -174.89018072 Ry
     estimated scf accuracy    <          3.0E-11 Ry

     iteration # 16     ecut=    60.00 Ry     beta= 0.50
     Davidson diagonalization with overlap
     ethr =  1.00E-13,  avg # of iterations =  4.0

     total cpu time spent up to now is       32.0 secs

     total energy              =    -174.89018072 Ry
     estimated scf accuracy    <          3.3E-12 Ry

     iteration # 17     ecut=    60.00 Ry     beta= 0.50
     Davidson diagonalization with overlap
     ethr =  1.00E-13,  avg # of iterations =  1.0

     total cpu time spent up to now is       33.3 secs

     End of self-consistent calculation

          k = 0.0000 0.0000 0.0000 ( 31335 PWs)   bands (ev):

   -26.2172 -25.3396 -23.7419 -22.4051 -19.5474 -16.9790 -16.0922 -15.7400
   -13.3876 -13.1913 -12.0971 -11.1331 -10.7311  -9.9081  -9.6477  -9.5461
    -9.0994  -8.9493  -8.5681  -8.0240  -6.2237  -6.1278  -5.3707  -5.1670

     highest occupied level (ev):    -5.1670

!    total energy              =    -174.89018072 Ry
     estimated scf accuracy    <          6.1E-13 Ry

     The total energy is the sum of the following terms:
     one-electron contribution =    -559.92715796 Ry
     hartree contribution      =     287.43771548 Ry
     xc contribution           =     -54.48611346 Ry
     ewald contribution        =     152.08537522 Ry

     convergence has been achieved in  17 iterations

     Forces acting on atoms (cartesian axes, Ry/au):

     atom    1 type  1   force =    -0.00101530   -0.00002781   -0.00074443
     atom    2 type  1   force =     0.00168310    0.00001762   -0.00117683
     atom    3 type  2   force =    -0.00112813   -0.00000846    0.00009300
     atom    4 type  1   force =     0.00226309    0.00004179   -0.00130666
     atom    5 type  3   force =    -0.00097734   -0.00001554    0.00125823
     atom    6 type  4   force =    -0.00524143    0.00005831    0.00172709
     atom    7 type  2   force =     0.00392974   -0.00001492   -0.00094790
     atom    8 type  1   force =     0.00249887   -0.00022410    0.00031456
     atom    9 type  3   force =    -0.00062288    0.00010742   -0.00117601
     atom   10 type  4   force =     0.00123409    0.00006923    0.00430037
     atom   11 type  2   force =    -0.00233630   -0.00001443   -0.00261584
     atom   12 type  1   force =     0.00011954    0.00001208   -0.00000766
     atom   13 type  2   force =    -0.00102815    0.00000453    0.00018327
     atom   14 type  2   force =     0.00031518   -0.00111807    0.00006103
     atom   15 type  2   force =     0.00030592    0.00111236    0.00003778

     Total force =     0.010370     Total SCF correction =     0.000002

     Writing output data file ./Thymine.save/

     init_run     :      1.51s CPU      1.56s WALL (       1 calls)
     electrons    :     31.21s CPU     31.64s WALL (       1 calls)
     forces       :      1.03s CPU      1.05s WALL (       1 calls)

     Called by init_run:
     wfcinit      :      0.72s CPU      0.74s WALL (       1 calls)
     potinit      :      0.45s CPU      0.48s WALL (       1 calls)
     hinit0       :      0.24s CPU      0.25s WALL (       1 calls)

     Called by electrons:
     c_bands      :     22.38s CPU     22.53s WALL (      17 calls)
     sum_band     :      3.32s CPU      3.35s WALL (      17 calls)
     v_of_rho     :      4.44s CPU      4.68s WALL (      18 calls)
     mix_rho      :      1.16s CPU      1.18s WALL (      17 calls)

     Called by c_bands:
     init_us_2    :      0.28s CPU      0.29s WALL (      35 calls)
     regterg      :     22.00s CPU     22.14s WALL (      17 calls)

     Called by *egterg:
     rdiaghg      :      0.10s CPU      0.10s WALL (      80 calls)
     h_psi        :     17.66s CPU     17.80s WALL (      81 calls)
     g_psi        :      0.05s CPU      0.05s WALL (      63 calls)

     Called by h_psi:
     h_psi:calbec :      3.16s CPU      3.17s WALL (      81 calls)
     vloc_psi     :     11.88s CPU     12.00s WALL (      81 calls)
     add_vuspsi   :      2.52s CPU      2.52s WALL (      81 calls)

     General routines
     calbec       :      3.41s CPU      3.42s WALL (      85 calls)
     fft          :      2.74s CPU      2.81s WALL (     152 calls)
     ffts         :      0.30s CPU      0.30s WALL (      17 calls)
     fftw         :     11.06s CPU     11.16s WALL (    1446 calls)

     Parallel routines

     PWSCF        :     33.90s CPU     34.43s WALL


   This run was terminated on:   5:28:54  24May2021            

=------------------------------------------------------------------------------=
   JOB DONE.
=------------------------------------------------------------------------------=
