
     Program PWSCF v.6.7GPU starts on 24May2021 at  1:17:50 

     This program is part of the open-source Quantum ESPRESSO suite
     for quantum simulation of materials; please cite
         "P. Giannozzi et al., J. Phys.:Condens. Matter 21 395502 (2009);
         "P. Giannozzi et al., J. Phys.:Condens. Matter 29 465901 (2017);
         "P. Giannozzi et al., J. Chem. Phys. 152 154105 (2020);
          URL http://www.quantum-espresso.org", 
     in publications or presentations arising from this work. More details at
     http://www.quantum-espresso.org/quote

     Parallel version (MPI), running on     4 processors

     MPI processes distributed on     1 nodes
     R & G space division:  proc/nbgrp/npool/nimage =       4
     Waiting for input...
     Reading input from standard input
     Message from routine read_cards :
     DEPRECATED: no units specified in CELL_PARAMETERS card

     Current dimensions of program PWSCF are:
     Max number of different atomic species (ntypx) = 10
     Max number of k-points (npk) =  40000
     Max angular momentum in pseudopotentials (lmaxx) =  3

     gamma-point specific algorithms are used

     Subspace diagonalization in iterative solution of the eigenvalue problem:
     one sub-group per band group will be used
     scalapack distributed-memory algorithm (size of sub-group:  2*  2 procs)


     Parallelization info
     --------------------
     sticks:   dense  smooth     PW     G-vecs:    dense   smooth      PW
     Min        1271    1271    317                68355    68355    8565
     Max        1276    1276    322                68358    68358    8568
     Sum        5097    5097   1281               273425   273425   34265

     Using Slab Decomposition



     bravais-lattice index     =            0
     lattice parameter (alat)  =      20.0000  a.u.
     unit-cell volume          =    8000.0000 (a.u.)^3
     number of atoms/cell      =           15
     number of atomic types    =            2
     number of electrons       =        36.00
     number of Kohn-Sham states=           18
     kinetic-energy cutoff     =      40.0000  Ry
     charge density cutoff     =     160.0000  Ry
     scf convergence threshold =      1.0E-12
     mixing beta               =       0.5000
     number of iterations used =            8  plain     mixing
     Exchange-correlation= PBE
                           (   1   4   3   4   0   0   0)

     celldm(1)=  20.000000  celldm(2)=   0.000000  celldm(3)=   0.000000
     celldm(4)=   0.000000  celldm(5)=   0.000000  celldm(6)=   0.000000

     crystal axes: (cart. coord. in units of alat)
               a(1) = (   1.000000   0.000000   0.000000 )  
               a(2) = (   0.000000   1.000000   0.000000 )  
               a(3) = (   0.000000   0.000000   1.000000 )  

     reciprocal axes: (cart. coord. in units 2 pi/alat)
               b(1) = (  1.000000  0.000000  0.000000 )  
               b(2) = (  0.000000  1.000000  0.000000 )  
               b(3) = (  0.000000  0.000000  1.000000 )  


     PseudoPot. # 1 for C  read from file:
     /home/ciga/builds/pseudo_potentials/C.upf
     MD5 check sum: d80ec9912146af6c4c1760317d1f95e9
     Pseudo is Norm-conserving + core correction, Zval =  4.0
     Generated using ONCVPSP code by D. R. Hamann
     Using radial grid of 1248 points,  4 beta functions with: 
                l(1) =   0
                l(2) =   0
                l(3) =   1
                l(4) =   1

     PseudoPot. # 2 for H  read from file:
     /home/ciga/builds/pseudo_potentials/H.upf
     MD5 check sum: 418cee52d0c413ae40802e6cc37ab9e3
     Pseudo is Norm-conserving, Zval =  1.0
     Generated using ONCVPSP code by D. R. Hamann
     Using radial grid of 1166 points,  3 beta functions with: 
                l(1) =   0
                l(2) =   0
                l(3) =   1

     atomic species   valence    mass     pseudopotential
        C              4.00    12.01070     C ( 1.00)
        H              1.00     1.00794     H ( 1.00)

     No symmetry found



   Cartesian axes

     site n.     atom                  positions (alat units)
         1           C   tau(   1) = (  -0.1031413  -0.0826661   0.0000000  )
         2           C   tau(   2) = (   0.0200216  -0.1306557   0.0000000  )
         3           C   tau(   3) = (   0.1231535  -0.0479896   0.0000000  )
         4           C   tau(   4) = (   0.1031413   0.0826661   0.0000000  )
         5           C   tau(   5) = (  -0.0200216   0.1306462   0.0000000  )
         6           C   tau(   6) = (  -0.1231629   0.0479801   0.0000000  )
         7           H   tau(   7) = (  -0.1849757  -0.1482624   0.0000000  )
         8           H   tau(   8) = (   0.0359130  -0.2343245   0.0000000  )
         9           H   tau(   9) = (   0.1849757   0.1482624   0.0000000  )
        10           H   tau(  10) = (  -0.0359116   0.2343153   0.0000000  )
        11           H   tau(  11) = (  -0.2208834   0.0860653   0.0000000  )
        12           C   tau(  12) = (   0.2573317  -0.1002521   0.0000000  )
        13           H   tau(  13) = (   0.3209874  -0.0331470   0.0494434  )
        14           H   tau(  14) = (   0.2588326  -0.1927318   0.0494471  )
        15           H   tau(  15) = (   0.2899067  -0.1129400  -0.0988821  )

     number of k points=     1
                       cart. coord. in units 2pi/alat
        k(    1) = (   0.0000000   0.0000000   0.0000000), wk =   2.0000000

     Dense  grid:   136713 G-vectors     FFT dimensions: (  81,  81,  81)

     Estimated max dynamical RAM per process >      37.45 MB

     Estimated total dynamical RAM >     149.80 MB

     Initial potential from superposition of free atoms

     starting charge   35.99961, renormalised to   36.00000

     negative rho (up, down):  1.887E-03 0.000E+00
     Starting wfcs are   36 randomized atomic wfcs

     total cpu time spent up to now is        0.8 secs

     Self-consistent Calculation

     iteration #  1     ecut=    40.00 Ry     beta= 0.50
     Davidson diagonalization with overlap
     ethr =  1.00E-02,  avg # of iterations =  2.0

     negative rho (up, down):  8.565E-04 0.000E+00

     total cpu time spent up to now is        1.5 secs

     total energy              =     -93.19604621 Ry
     estimated scf accuracy    <       1.54980526 Ry

     iteration #  2     ecut=    40.00 Ry     beta= 0.50
     Davidson diagonalization with overlap
     ethr =  4.31E-03,  avg # of iterations =  2.0

     negative rho (up, down):  3.455E-04 0.000E+00

     total cpu time spent up to now is        2.2 secs

     total energy              =     -93.41011622 Ry
     estimated scf accuracy    <       0.12072199 Ry

     iteration #  3     ecut=    40.00 Ry     beta= 0.50
     Davidson diagonalization with overlap
     ethr =  3.35E-04,  avg # of iterations =  2.0

     negative rho (up, down):  1.891E-05 0.000E+00

     total cpu time spent up to now is        2.8 secs

     total energy              =     -93.40989531 Ry
     estimated scf accuracy    <       0.02158730 Ry

     iteration #  4     ecut=    40.00 Ry     beta= 0.50
     Davidson diagonalization with overlap
     ethr =  6.00E-05,  avg # of iterations =  2.0

     negative rho (up, down):  8.061E-07 0.000E+00

     total cpu time spent up to now is        3.5 secs

     total energy              =     -93.41244163 Ry
     estimated scf accuracy    <       0.00136670 Ry

     iteration #  5     ecut=    40.00 Ry     beta= 0.50
     Davidson diagonalization with overlap
     ethr =  3.80E-06,  avg # of iterations =  3.0

     negative rho (up, down):  1.130E-07 0.000E+00

     total cpu time spent up to now is        4.2 secs

     total energy              =     -93.41293133 Ry
     estimated scf accuracy    <       0.00030984 Ry

     iteration #  6     ecut=    40.00 Ry     beta= 0.50
     Davidson diagonalization with overlap
     ethr =  8.61E-07,  avg # of iterations =  2.0

     total cpu time spent up to now is        4.9 secs

     total energy              =     -93.41297055 Ry
     estimated scf accuracy    <       0.00001868 Ry

     iteration #  7     ecut=    40.00 Ry     beta= 0.50
     Davidson diagonalization with overlap
     ethr =  5.19E-08,  avg # of iterations =  3.0

     total cpu time spent up to now is        5.8 secs

     total energy              =     -93.41297585 Ry
     estimated scf accuracy    <       0.00001910 Ry

     iteration #  8     ecut=    40.00 Ry     beta= 0.50
     Davidson diagonalization with overlap
     ethr =  5.19E-08,  avg # of iterations =  2.0

     total cpu time spent up to now is        6.5 secs

     total energy              =     -93.41298120 Ry
     estimated scf accuracy    <       0.00000099 Ry

     iteration #  9     ecut=    40.00 Ry     beta= 0.50
     Davidson diagonalization with overlap
     ethr =  2.75E-09,  avg # of iterations =  3.0

     total cpu time spent up to now is        7.3 secs

     total energy              =     -93.41298144 Ry
     estimated scf accuracy    <       0.00000006 Ry

     iteration # 10     ecut=    40.00 Ry     beta= 0.50
     Davidson diagonalization with overlap
     ethr =  1.71E-10,  avg # of iterations =  3.0

     total cpu time spent up to now is        8.0 secs

     total energy              =     -93.41298146 Ry
     estimated scf accuracy    <          4.4E-09 Ry

     iteration # 11     ecut=    40.00 Ry     beta= 0.50
     Davidson diagonalization with overlap
     ethr =  1.23E-11,  avg # of iterations =  5.0

     total cpu time spent up to now is        8.9 secs

     total energy              =     -93.41298146 Ry
     estimated scf accuracy    <          3.1E-09 Ry

     iteration # 12     ecut=    40.00 Ry     beta= 0.50
     Davidson diagonalization with overlap
     ethr =  8.65E-12,  avg # of iterations =  4.0

     total cpu time spent up to now is        9.6 secs

     total energy              =     -93.41298146 Ry
     estimated scf accuracy    <          7.4E-10 Ry

     iteration # 13     ecut=    40.00 Ry     beta= 0.50
     Davidson diagonalization with overlap
     ethr =  2.04E-12,  avg # of iterations =  3.0

     total cpu time spent up to now is       10.3 secs

     total energy              =     -93.41298146 Ry
     estimated scf accuracy    <          2.1E-10 Ry

     iteration # 14     ecut=    40.00 Ry     beta= 0.50
     Davidson diagonalization with overlap
     ethr =  5.90E-13,  avg # of iterations =  4.0

     total cpu time spent up to now is       11.0 secs

     total energy              =     -93.41298146 Ry
     estimated scf accuracy    <          9.6E-12 Ry

     iteration # 15     ecut=    40.00 Ry     beta= 0.50
     Davidson diagonalization with overlap
     ethr =  1.00E-13,  avg # of iterations =  4.0

     total cpu time spent up to now is       11.7 secs

     total energy              =     -93.41298146 Ry
     estimated scf accuracy    <          6.3E-12 Ry

     iteration # 16     ecut=    40.00 Ry     beta= 0.50
     Davidson diagonalization with overlap
     ethr =  1.00E-13,  avg # of iterations =  2.0

     total cpu time spent up to now is       12.2 secs

     End of self-consistent calculation

          k = 0.0000 0.0000 0.0000 ( 17133 PWs)   bands (ev):

   -20.6937 -18.4529 -17.7788 -16.1790 -14.2058 -13.6090 -11.7626 -10.5399
   -10.2396  -9.6238  -9.4657  -9.0749  -8.5646  -8.0512  -7.4069  -7.3559
    -5.6064  -5.3475

     highest occupied level (ev):    -5.3475

!    total energy              =     -93.41298146 Ry
     estimated scf accuracy    <          4.9E-13 Ry

     The total energy is the sum of the following terms:
     one-electron contribution =    -327.93224364 Ry
     hartree contribution      =     168.84687345 Ry
     xc contribution           =     -35.34454694 Ry
     ewald contribution        =     101.01693567 Ry

     convergence has been achieved in  16 iterations

     Forces acting on atoms (cartesian axes, Ry/au):

     atom    1 type  1   force =    -0.02549698   -0.02063292   -0.00098616
     atom    2 type  1   force =    -0.00620240   -0.02532325   -0.00054501
     atom    3 type  1   force =     0.02721498   -0.01015782    0.00240898
     atom    4 type  1   force =     0.01242802    0.02206536   -0.00059778
     atom    5 type  1   force =    -0.00456358    0.03296398   -0.00096770
     atom    6 type  1   force =    -0.03391913    0.01317174   -0.00022808
     atom    7 type  2   force =     0.01870568    0.01530580    0.00022992
     atom    8 type  2   force =    -0.00268500    0.02378349    0.00068651
     atom    9 type  2   force =    -0.01773206   -0.01557298    0.00068408
     atom   10 type  2   force =     0.00357297   -0.02435690    0.00022971
     atom   11 type  2   force =     0.02315283   -0.00902676    0.00030944
     atom   12 type  1   force =     0.00002446   -0.00013892    0.00416210
     atom   13 type  2   force =    -0.00405056   -0.01492813   -0.01052528
     atom   14 type  2   force =     0.00708781    0.01377194   -0.01056412
     atom   15 type  2   force =     0.00246296   -0.00092462    0.01570341

     Total force =     0.097937     Total SCF correction =     0.000001

     Writing output data file ./Tuloene.save/

     init_run     :      0.63s CPU      0.67s WALL (       1 calls)
     electrons    :     11.27s CPU     11.49s WALL (       1 calls)
     forces       :      0.42s CPU      0.42s WALL (       1 calls)

     Called by init_run:
     wfcinit      :      0.31s CPU      0.32s WALL (       1 calls)
     potinit      :      0.20s CPU      0.23s WALL (       1 calls)
     hinit0       :      0.08s CPU      0.09s WALL (       1 calls)

     Called by electrons:
     c_bands      :      7.49s CPU      7.53s WALL (      16 calls)
     sum_band     :      1.34s CPU      1.35s WALL (      16 calls)
     v_of_rho     :      2.02s CPU      2.19s WALL (      17 calls)
     mix_rho      :      0.48s CPU      0.48s WALL (      16 calls)

     Called by c_bands:
     init_us_2    :      0.11s CPU      0.11s WALL (      33 calls)
     regterg      :      7.34s CPU      7.39s WALL (      16 calls)

     Called by *egterg:
     rdiaghg      :      0.06s CPU      0.06s WALL (      62 calls)
     h_psi        :      6.36s CPU      6.40s WALL (      63 calls)
     g_psi        :      0.03s CPU      0.03s WALL (      46 calls)

     Called by h_psi:
     h_psi:calbec :      1.03s CPU      1.04s WALL (      63 calls)
     vloc_psi     :      4.48s CPU      4.52s WALL (      63 calls)
     add_vuspsi   :      0.81s CPU      0.81s WALL (      63 calls)

     General routines
     calbec       :      1.12s CPU      1.12s WALL (      67 calls)
     fft          :      1.36s CPU      1.39s WALL (     144 calls)
     ffts         :      0.15s CPU      0.15s WALL (      16 calls)
     fftw         :      4.23s CPU      4.27s WALL (    1004 calls)

     Parallel routines

     PWSCF        :     12.41s CPU     12.69s WALL


   This run was terminated on:   1:18: 2  24May2021            

=------------------------------------------------------------------------------=
   JOB DONE.
=------------------------------------------------------------------------------=
