
     Program PWSCF v.6.7GPU starts on 24May2021 at  1:17:31 

     This program is part of the open-source Quantum ESPRESSO suite
     for quantum simulation of materials; please cite
         "P. Giannozzi et al., J. Phys.:Condens. Matter 21 395502 (2009);
         "P. Giannozzi et al., J. Phys.:Condens. Matter 29 465901 (2017);
         "P. Giannozzi et al., J. Chem. Phys. 152 154105 (2020);
          URL http://www.quantum-espresso.org", 
     in publications or presentations arising from this work. More details at
     http://www.quantum-espresso.org/quote

     Parallel version (MPI), running on     4 processors

     MPI processes distributed on     1 nodes
     R & G space division:  proc/nbgrp/npool/nimage =       4
     Waiting for input...
     Reading input from standard input
     Message from routine read_cards :
     DEPRECATED: no units specified in CELL_PARAMETERS card

     Current dimensions of program PWSCF are:
     Max number of different atomic species (ntypx) = 10
     Max number of k-points (npk) =  40000
     Max angular momentum in pseudopotentials (lmaxx) =  3

     gamma-point specific algorithms are used

     Subspace diagonalization in iterative solution of the eigenvalue problem:
     one sub-group per band group will be used
     scalapack distributed-memory algorithm (size of sub-group:  2*  2 procs)


     Parallelization info
     --------------------
     sticks:   dense  smooth     PW     G-vecs:    dense   smooth      PW
     Min         951     951    236                44375    44375    5524
     Max         954     954    238                44382    44382    5534
     Sum        3809    3809    949               177509   177509   22119

     Using Slab Decomposition



     bravais-lattice index     =            0
     lattice parameter (alat)  =      20.0000  a.u.
     unit-cell volume          =    8000.0000 (a.u.)^3
     number of atoms/cell      =           15
     number of atomic types    =            2
     number of electrons       =        36.00
     number of Kohn-Sham states=           18
     kinetic-energy cutoff     =      30.0000  Ry
     charge density cutoff     =     120.0000  Ry
     scf convergence threshold =      1.0E-12
     mixing beta               =       0.5000
     number of iterations used =            8  plain     mixing
     Exchange-correlation= PBE
                           (   1   4   3   4   0   0   0)

     celldm(1)=  20.000000  celldm(2)=   0.000000  celldm(3)=   0.000000
     celldm(4)=   0.000000  celldm(5)=   0.000000  celldm(6)=   0.000000

     crystal axes: (cart. coord. in units of alat)
               a(1) = (   1.000000   0.000000   0.000000 )  
               a(2) = (   0.000000   1.000000   0.000000 )  
               a(3) = (   0.000000   0.000000   1.000000 )  

     reciprocal axes: (cart. coord. in units 2 pi/alat)
               b(1) = (  1.000000  0.000000  0.000000 )  
               b(2) = (  0.000000  1.000000  0.000000 )  
               b(3) = (  0.000000  0.000000  1.000000 )  


     PseudoPot. # 1 for C  read from file:
     /home/ciga/builds/pseudo_potentials/C.upf
     MD5 check sum: d80ec9912146af6c4c1760317d1f95e9
     Pseudo is Norm-conserving + core correction, Zval =  4.0
     Generated using ONCVPSP code by D. R. Hamann
     Using radial grid of 1248 points,  4 beta functions with: 
                l(1) =   0
                l(2) =   0
                l(3) =   1
                l(4) =   1

     PseudoPot. # 2 for H  read from file:
     /home/ciga/builds/pseudo_potentials/H.upf
     MD5 check sum: 418cee52d0c413ae40802e6cc37ab9e3
     Pseudo is Norm-conserving, Zval =  1.0
     Generated using ONCVPSP code by D. R. Hamann
     Using radial grid of 1166 points,  3 beta functions with: 
                l(1) =   0
                l(2) =   0
                l(3) =   1

     atomic species   valence    mass     pseudopotential
        C              4.00    12.01070     C ( 1.00)
        H              1.00     1.00794     H ( 1.00)

     No symmetry found



   Cartesian axes

     site n.     atom                  positions (alat units)
         1           C   tau(   1) = (  -0.1031413  -0.0826661   0.0000000  )
         2           C   tau(   2) = (   0.0200216  -0.1306557   0.0000000  )
         3           C   tau(   3) = (   0.1231535  -0.0479896   0.0000000  )
         4           C   tau(   4) = (   0.1031413   0.0826661   0.0000000  )
         5           C   tau(   5) = (  -0.0200216   0.1306462   0.0000000  )
         6           C   tau(   6) = (  -0.1231629   0.0479801   0.0000000  )
         7           H   tau(   7) = (  -0.1849757  -0.1482624   0.0000000  )
         8           H   tau(   8) = (   0.0359130  -0.2343245   0.0000000  )
         9           H   tau(   9) = (   0.1849757   0.1482624   0.0000000  )
        10           H   tau(  10) = (  -0.0359116   0.2343153   0.0000000  )
        11           H   tau(  11) = (  -0.2208834   0.0860653   0.0000000  )
        12           C   tau(  12) = (   0.2573317  -0.1002521   0.0000000  )
        13           H   tau(  13) = (   0.3209874  -0.0331470   0.0494434  )
        14           H   tau(  14) = (   0.2588326  -0.1927318   0.0494471  )
        15           H   tau(  15) = (   0.2899067  -0.1129400  -0.0988821  )

     number of k points=     1
                       cart. coord. in units 2pi/alat
        k(    1) = (   0.0000000   0.0000000   0.0000000), wk =   2.0000000

     Dense  grid:    88755 G-vectors     FFT dimensions: (  72,  72,  72)

     Estimated max dynamical RAM per process >      24.72 MB

     Estimated total dynamical RAM >      98.87 MB

     Check: negative core charge=   -0.000001

     Initial potential from superposition of free atoms

     starting charge   35.99961, renormalised to   36.00000

     negative rho (up, down):  9.529E-03 0.000E+00
     Starting wfcs are   36 randomized atomic wfcs

     total cpu time spent up to now is        0.5 secs

     Self-consistent Calculation

     iteration #  1     ecut=    30.00 Ry     beta= 0.50
     Davidson diagonalization with overlap
     ethr =  1.00E-02,  avg # of iterations =  2.0

     negative rho (up, down):  4.511E-03 0.000E+00

     total cpu time spent up to now is        0.9 secs

     total energy              =     -92.66965349 Ry
     estimated scf accuracy    <       1.35191662 Ry

     iteration #  2     ecut=    30.00 Ry     beta= 0.50
     Davidson diagonalization with overlap
     ethr =  3.76E-03,  avg # of iterations =  2.0

     negative rho (up, down):  1.804E-03 0.000E+00

     total cpu time spent up to now is        1.3 secs

     total energy              =     -92.83541405 Ry
     estimated scf accuracy    <       0.11703716 Ry

     iteration #  3     ecut=    30.00 Ry     beta= 0.50
     Davidson diagonalization with overlap
     ethr =  3.25E-04,  avg # of iterations =  2.0

     negative rho (up, down):  1.097E-04 0.000E+00

     total cpu time spent up to now is        1.7 secs

     total energy              =     -92.83482583 Ry
     estimated scf accuracy    <       0.01936888 Ry

     iteration #  4     ecut=    30.00 Ry     beta= 0.50
     Davidson diagonalization with overlap
     ethr =  5.38E-05,  avg # of iterations =  2.0

     negative rho (up, down):  6.672E-06 0.000E+00

     total cpu time spent up to now is        2.1 secs

     total energy              =     -92.83716464 Ry
     estimated scf accuracy    <       0.00101778 Ry

     iteration #  5     ecut=    30.00 Ry     beta= 0.50
     Davidson diagonalization with overlap
     ethr =  2.83E-06,  avg # of iterations =  3.0

     negative rho (up, down):  9.509E-07 0.000E+00

     total cpu time spent up to now is        2.5 secs

     total energy              =     -92.83750662 Ry
     estimated scf accuracy    <       0.00025110 Ry

     iteration #  6     ecut=    30.00 Ry     beta= 0.50
     Davidson diagonalization with overlap
     ethr =  6.97E-07,  avg # of iterations =  2.0

     total cpu time spent up to now is        3.0 secs

     total energy              =     -92.83755597 Ry
     estimated scf accuracy    <       0.00000779 Ry

     iteration #  7     ecut=    30.00 Ry     beta= 0.50
     Davidson diagonalization with overlap
     ethr =  2.16E-08,  avg # of iterations =  4.0

     total cpu time spent up to now is        3.4 secs

     total energy              =     -92.83755688 Ry
     estimated scf accuracy    <       0.00000630 Ry

     iteration #  8     ecut=    30.00 Ry     beta= 0.50
     Davidson diagonalization with overlap
     ethr =  1.75E-08,  avg # of iterations =  3.0

     total cpu time spent up to now is        3.9 secs

     total energy              =     -92.83755897 Ry
     estimated scf accuracy    <       0.00000154 Ry

     iteration #  9     ecut=    30.00 Ry     beta= 0.50
     Davidson diagonalization with overlap
     ethr =  4.27E-09,  avg # of iterations =  2.0

     total cpu time spent up to now is        4.3 secs

     total energy              =     -92.83755916 Ry
     estimated scf accuracy    <       0.00000007 Ry

     iteration # 10     ecut=    30.00 Ry     beta= 0.50
     Davidson diagonalization with overlap
     ethr =  1.95E-10,  avg # of iterations =  4.0

     total cpu time spent up to now is        4.8 secs

     total energy              =     -92.83755920 Ry
     estimated scf accuracy    <       0.00000005 Ry

     iteration # 11     ecut=    30.00 Ry     beta= 0.50
     Davidson diagonalization with overlap
     ethr =  1.31E-10,  avg # of iterations =  2.0

     total cpu time spent up to now is        5.2 secs

     total energy              =     -92.83755920 Ry
     estimated scf accuracy    <          5.6E-09 Ry

     iteration # 12     ecut=    30.00 Ry     beta= 0.50
     Davidson diagonalization with overlap
     ethr =  1.56E-11,  avg # of iterations =  2.0

     total cpu time spent up to now is        5.6 secs

     total energy              =     -92.83755920 Ry
     estimated scf accuracy    <          6.7E-10 Ry

     iteration # 13     ecut=    30.00 Ry     beta= 0.50
     Davidson diagonalization with overlap
     ethr =  1.86E-12,  avg # of iterations =  5.0

     total cpu time spent up to now is        6.1 secs

     total energy              =     -92.83755920 Ry
     estimated scf accuracy    <          2.6E-10 Ry

     iteration # 14     ecut=    30.00 Ry     beta= 0.50
     Davidson diagonalization with overlap
     ethr =  7.22E-13,  avg # of iterations =  3.0

     total cpu time spent up to now is        6.5 secs

     total energy              =     -92.83755920 Ry
     estimated scf accuracy    <          7.5E-11 Ry

     iteration # 15     ecut=    30.00 Ry     beta= 0.50
     Davidson diagonalization with overlap
     ethr =  2.09E-13,  avg # of iterations =  5.0

     total cpu time spent up to now is        6.9 secs

     total energy              =     -92.83755920 Ry
     estimated scf accuracy    <          1.3E-11 Ry

     iteration # 16     ecut=    30.00 Ry     beta= 0.50
     Davidson diagonalization with overlap
     ethr =  1.00E-13,  avg # of iterations =  3.0

     total cpu time spent up to now is        7.3 secs

     total energy              =     -92.83755920 Ry
     estimated scf accuracy    <          5.1E-12 Ry

     iteration # 17     ecut=    30.00 Ry     beta= 0.50
     Davidson diagonalization with overlap
     ethr =  1.00E-13,  avg # of iterations =  1.0

     total cpu time spent up to now is        7.7 secs

     total energy              =     -92.83755920 Ry
     estimated scf accuracy    <          2.7E-12 Ry

     iteration # 18     ecut=    30.00 Ry     beta= 0.50
     Davidson diagonalization with overlap
     ethr =  1.00E-13,  avg # of iterations =  1.0

     total cpu time spent up to now is        8.0 secs

     End of self-consistent calculation

          k = 0.0000 0.0000 0.0000 ( 11060 PWs)   bands (ev):

   -20.8396 -18.5903 -17.9144 -16.2871 -14.3091 -13.7002 -11.7877 -10.5378
   -10.2796  -9.6299  -9.4694  -9.0603  -8.5510  -8.0494  -7.3742  -7.3039
    -5.5852  -5.3280

     highest occupied level (ev):    -5.3280

!    total energy              =     -92.83755920 Ry
     estimated scf accuracy    <          2.9E-13 Ry

     The total energy is the sum of the following terms:
     one-electron contribution =    -326.87520415 Ry
     hartree contribution      =     168.19839851 Ry
     xc contribution           =     -35.17768924 Ry
     ewald contribution        =     101.01693567 Ry

     convergence has been achieved in  18 iterations

     Forces acting on atoms (cartesian axes, Ry/au):

     atom    1 type  1   force =    -0.00629544   -0.00665803   -0.00101580
     atom    2 type  1   force =    -0.01147649    0.00047988   -0.00060418
     atom    3 type  1   force =     0.03013538   -0.01333483    0.00254419
     atom    4 type  1   force =    -0.00881361    0.00964607   -0.00056196
     atom    5 type  1   force =    -0.00170393    0.00740475   -0.00101001
     atom    6 type  1   force =    -0.00943188    0.00541015   -0.00018463
     atom    7 type  2   force =     0.00575663    0.00487038    0.00023873
     atom    8 type  2   force =     0.00009831    0.00703907    0.00070091
     atom    9 type  2   force =    -0.00475208   -0.00533974    0.00071469
     atom   10 type  2   force =     0.00099235   -0.00748112    0.00023689
     atom   11 type  2   force =     0.00786321   -0.00307678    0.00032569
     atom   12 type  1   force =    -0.02474635    0.00915102    0.00427507
     atom   13 type  2   force =     0.00674310   -0.00373440   -0.00272643
     atom   14 type  2   force =     0.00751939   -0.00119895   -0.00269367
     atom   15 type  2   force =     0.00811140   -0.00317747   -0.00023949

     Total force =     0.053546     Total SCF correction =     0.000001

     Writing output data file ./Tuloene.save/

     init_run     :      0.39s CPU      0.42s WALL (       1 calls)
     electrons    :      7.30s CPU      7.49s WALL (       1 calls)
     forces       :      0.28s CPU      0.28s WALL (       1 calls)

     Called by init_run:
     wfcinit      :      0.17s CPU      0.18s WALL (       1 calls)
     potinit      :      0.14s CPU      0.15s WALL (       1 calls)
     hinit0       :      0.06s CPU      0.06s WALL (       1 calls)

     Called by electrons:
     c_bands      :      4.70s CPU      4.75s WALL (      18 calls)
     sum_band     :      0.84s CPU      0.85s WALL (      18 calls)
     v_of_rho     :      1.48s CPU      1.61s WALL (      19 calls)
     mix_rho      :      0.30s CPU      0.30s WALL (      18 calls)

     Called by c_bands:
     init_us_2    :      0.07s CPU      0.08s WALL (      37 calls)
     regterg      :      4.60s CPU      4.64s WALL (      18 calls)

     Called by *egterg:
     rdiaghg      :      0.06s CPU      0.06s WALL (      66 calls)
     h_psi        :      3.90s CPU      3.95s WALL (      67 calls)
     g_psi        :      0.01s CPU      0.01s WALL (      48 calls)

     Called by h_psi:
     h_psi:calbec :      0.73s CPU      0.73s WALL (      67 calls)
     vloc_psi     :      2.60s CPU      2.63s WALL (      67 calls)
     add_vuspsi   :      0.56s CPU      0.56s WALL (      67 calls)

     General routines
     calbec       :      0.78s CPU      0.79s WALL (      71 calls)
     fft          :      0.77s CPU      0.80s WALL (     160 calls)
     ffts         :      0.10s CPU      0.10s WALL (      18 calls)
     fftw         :      2.40s CPU      2.43s WALL (    1100 calls)

     Parallel routines

     PWSCF        :      8.05s CPU      8.28s WALL


   This run was terminated on:   1:17:40  24May2021            

=------------------------------------------------------------------------------=
   JOB DONE.
=------------------------------------------------------------------------------=
