
     Program PWSCF v.6.7GPU starts on 24May2021 at  1:23:40 

     This program is part of the open-source Quantum ESPRESSO suite
     for quantum simulation of materials; please cite
         "P. Giannozzi et al., J. Phys.:Condens. Matter 21 395502 (2009);
         "P. Giannozzi et al., J. Phys.:Condens. Matter 29 465901 (2017);
         "P. Giannozzi et al., J. Chem. Phys. 152 154105 (2020);
          URL http://www.quantum-espresso.org", 
     in publications or presentations arising from this work. More details at
     http://www.quantum-espresso.org/quote

     Parallel version (MPI), running on     4 processors

     MPI processes distributed on     1 nodes
     R & G space division:  proc/nbgrp/npool/nimage =       4
     Waiting for input...
     Reading input from standard input
     Message from routine read_cards :
     DEPRECATED: no units specified in CELL_PARAMETERS card

     Current dimensions of program PWSCF are:
     Max number of different atomic species (ntypx) = 10
     Max number of k-points (npk) =  40000
     Max angular momentum in pseudopotentials (lmaxx) =  3

     gamma-point specific algorithms are used

     Subspace diagonalization in iterative solution of the eigenvalue problem:
     one sub-group per band group will be used
     scalapack distributed-memory algorithm (size of sub-group:  2*  2 procs)


     Parallelization info
     --------------------
     sticks:   dense  smooth     PW     G-vecs:    dense   smooth      PW
     Min        3022    3022    754               250214   250214   31205
     Max        3024    3024    755               250219   250219   31206
     Sum       12093   12093   3017              1000865  1000865  124823

     Using Slab Decomposition



     bravais-lattice index     =            0
     lattice parameter (alat)  =      20.0000  a.u.
     unit-cell volume          =    8000.0000 (a.u.)^3
     number of atoms/cell      =           15
     number of atomic types    =            2
     number of electrons       =        36.00
     number of Kohn-Sham states=           18
     kinetic-energy cutoff     =      95.0000  Ry
     charge density cutoff     =     380.0000  Ry
     scf convergence threshold =      1.0E-12
     mixing beta               =       0.5000
     number of iterations used =            8  plain     mixing
     Exchange-correlation= PBE
                           (   1   4   3   4   0   0   0)

     celldm(1)=  20.000000  celldm(2)=   0.000000  celldm(3)=   0.000000
     celldm(4)=   0.000000  celldm(5)=   0.000000  celldm(6)=   0.000000

     crystal axes: (cart. coord. in units of alat)
               a(1) = (   1.000000   0.000000   0.000000 )  
               a(2) = (   0.000000   1.000000   0.000000 )  
               a(3) = (   0.000000   0.000000   1.000000 )  

     reciprocal axes: (cart. coord. in units 2 pi/alat)
               b(1) = (  1.000000  0.000000  0.000000 )  
               b(2) = (  0.000000  1.000000  0.000000 )  
               b(3) = (  0.000000  0.000000  1.000000 )  


     PseudoPot. # 1 for C  read from file:
     /home/ciga/builds/pseudo_potentials/C.upf
     MD5 check sum: d80ec9912146af6c4c1760317d1f95e9
     Pseudo is Norm-conserving + core correction, Zval =  4.0
     Generated using ONCVPSP code by D. R. Hamann
     Using radial grid of 1248 points,  4 beta functions with: 
                l(1) =   0
                l(2) =   0
                l(3) =   1
                l(4) =   1

     PseudoPot. # 2 for H  read from file:
     /home/ciga/builds/pseudo_potentials/H.upf
     MD5 check sum: 418cee52d0c413ae40802e6cc37ab9e3
     Pseudo is Norm-conserving, Zval =  1.0
     Generated using ONCVPSP code by D. R. Hamann
     Using radial grid of 1166 points,  3 beta functions with: 
                l(1) =   0
                l(2) =   0
                l(3) =   1

     atomic species   valence    mass     pseudopotential
        C              4.00    12.01070     C ( 1.00)
        H              1.00     1.00794     H ( 1.00)

     No symmetry found



   Cartesian axes

     site n.     atom                  positions (alat units)
         1           C   tau(   1) = (  -0.1031413  -0.0826661   0.0000000  )
         2           C   tau(   2) = (   0.0200216  -0.1306557   0.0000000  )
         3           C   tau(   3) = (   0.1231535  -0.0479896   0.0000000  )
         4           C   tau(   4) = (   0.1031413   0.0826661   0.0000000  )
         5           C   tau(   5) = (  -0.0200216   0.1306462   0.0000000  )
         6           C   tau(   6) = (  -0.1231629   0.0479801   0.0000000  )
         7           H   tau(   7) = (  -0.1849757  -0.1482624   0.0000000  )
         8           H   tau(   8) = (   0.0359130  -0.2343245   0.0000000  )
         9           H   tau(   9) = (   0.1849757   0.1482624   0.0000000  )
        10           H   tau(  10) = (  -0.0359116   0.2343153   0.0000000  )
        11           H   tau(  11) = (  -0.2208834   0.0860653   0.0000000  )
        12           C   tau(  12) = (   0.2573317  -0.1002521   0.0000000  )
        13           H   tau(  13) = (   0.3209874  -0.0331470   0.0494434  )
        14           H   tau(  14) = (   0.2588326  -0.1927318   0.0494471  )
        15           H   tau(  15) = (   0.2899067  -0.1129400  -0.0988821  )

     number of k points=     1
                       cart. coord. in units 2pi/alat
        k(    1) = (   0.0000000   0.0000000   0.0000000), wk =   2.0000000

     Dense  grid:   500433 G-vectors     FFT dimensions: ( 125, 125, 125)

     Estimated max dynamical RAM per process >     135.47 MB

     Estimated total dynamical RAM >     541.89 MB

     Initial potential from superposition of free atoms

     starting charge   35.99961, renormalised to   36.00000

     negative rho (up, down):  3.273E-06 0.000E+00
     Starting wfcs are   36 randomized atomic wfcs

     total cpu time spent up to now is        2.5 secs

     Self-consistent Calculation

     iteration #  1     ecut=    95.00 Ry     beta= 0.50
     Davidson diagonalization with overlap
     ethr =  1.00E-02,  avg # of iterations =  2.0

     total cpu time spent up to now is        5.5 secs

     total energy              =     -93.48778375 Ry
     estimated scf accuracy    <       1.67336043 Ry

     iteration #  2     ecut=    95.00 Ry     beta= 0.50
     Davidson diagonalization with overlap
     ethr =  4.65E-03,  avg # of iterations =  2.0

     total cpu time spent up to now is        8.4 secs

     total energy              =     -93.73254935 Ry
     estimated scf accuracy    <       0.12339868 Ry

     iteration #  3     ecut=    95.00 Ry     beta= 0.50
     Davidson diagonalization with overlap
     ethr =  3.43E-04,  avg # of iterations =  2.0

     total cpu time spent up to now is       10.8 secs

     total energy              =     -93.73211549 Ry
     estimated scf accuracy    <       0.02281639 Ry

     iteration #  4     ecut=    95.00 Ry     beta= 0.50
     Davidson diagonalization with overlap
     ethr =  6.34E-05,  avg # of iterations =  2.0

     total cpu time spent up to now is       13.5 secs

     total energy              =     -93.73496391 Ry
     estimated scf accuracy    <       0.00144381 Ry

     iteration #  5     ecut=    95.00 Ry     beta= 0.50
     Davidson diagonalization with overlap
     ethr =  4.01E-06,  avg # of iterations =  3.0

     total cpu time spent up to now is       16.6 secs

     total energy              =     -93.73548743 Ry
     estimated scf accuracy    <       0.00040809 Ry

     iteration #  6     ecut=    95.00 Ry     beta= 0.50
     Davidson diagonalization with overlap
     ethr =  1.13E-06,  avg # of iterations =  2.0

     total cpu time spent up to now is       19.5 secs

     total energy              =     -93.73554700 Ry
     estimated scf accuracy    <       0.00001828 Ry

     iteration #  7     ecut=    95.00 Ry     beta= 0.50
     Davidson diagonalization with overlap
     ethr =  5.08E-08,  avg # of iterations =  5.0

     total cpu time spent up to now is       23.0 secs

     total energy              =     -93.73555373 Ry
     estimated scf accuracy    <       0.00001653 Ry

     iteration #  8     ecut=    95.00 Ry     beta= 0.50
     Davidson diagonalization with overlap
     ethr =  4.59E-08,  avg # of iterations =  2.0

     total cpu time spent up to now is       25.8 secs

     total energy              =     -93.73555764 Ry
     estimated scf accuracy    <       0.00000050 Ry

     iteration #  9     ecut=    95.00 Ry     beta= 0.50
     Davidson diagonalization with overlap
     ethr =  1.39E-09,  avg # of iterations =  6.0

     total cpu time spent up to now is       29.5 secs

     total energy              =     -93.73555781 Ry
     estimated scf accuracy    <       0.00000062 Ry

     iteration # 10     ecut=    95.00 Ry     beta= 0.50
     Davidson diagonalization with overlap
     ethr =  1.39E-09,  avg # of iterations =  4.0

     total cpu time spent up to now is       32.4 secs

     total energy              =     -93.73555790 Ry
     estimated scf accuracy    <       0.00000002 Ry

     iteration # 11     ecut=    95.00 Ry     beta= 0.50
     Davidson diagonalization with overlap
     ethr =  5.63E-11,  avg # of iterations =  3.0

     total cpu time spent up to now is       35.6 secs

     total energy              =     -93.73555791 Ry
     estimated scf accuracy    <          3.2E-09 Ry

     iteration # 12     ecut=    95.00 Ry     beta= 0.50
     Davidson diagonalization with overlap
     ethr =  8.81E-12,  avg # of iterations =  5.0

     total cpu time spent up to now is       39.6 secs

     total energy              =     -93.73555791 Ry
     estimated scf accuracy    <          9.6E-09 Ry

     iteration # 13     ecut=    95.00 Ry     beta= 0.50
     Davidson diagonalization with overlap
     ethr =  8.81E-12,  avg # of iterations =  4.0

     total cpu time spent up to now is       42.6 secs

     total energy              =     -93.73555791 Ry
     estimated scf accuracy    <          4.5E-10 Ry

     iteration # 14     ecut=    95.00 Ry     beta= 0.50
     Davidson diagonalization with overlap
     ethr =  1.24E-12,  avg # of iterations =  5.0

     total cpu time spent up to now is       46.0 secs

     total energy              =     -93.73555791 Ry
     estimated scf accuracy    <          2.8E-10 Ry

     iteration # 15     ecut=    95.00 Ry     beta= 0.50
     Davidson diagonalization with overlap
     ethr =  7.91E-13,  avg # of iterations =  3.0

     total cpu time spent up to now is       48.8 secs

     total energy              =     -93.73555791 Ry
     estimated scf accuracy    <          6.9E-12 Ry

     iteration # 16     ecut=    95.00 Ry     beta= 0.50
     Davidson diagonalization with overlap
     ethr =  1.00E-13,  avg # of iterations =  5.0

     total cpu time spent up to now is       51.7 secs

     total energy              =     -93.73555791 Ry
     estimated scf accuracy    <          5.6E-12 Ry

     iteration # 17     ecut=    95.00 Ry     beta= 0.50
     Davidson diagonalization with overlap
     ethr =  1.00E-13,  avg # of iterations =  2.0

     total cpu time spent up to now is       53.9 secs

     End of self-consistent calculation

          k = 0.0000 0.0000 0.0000 ( 62412 PWs)   bands (ev):

   -20.5768 -18.3541 -17.6781 -16.1029 -14.1519 -13.5607 -11.7550 -10.5530
   -10.2157  -9.6246  -9.4736  -9.0808  -8.5809  -8.0485  -7.4358  -7.3835
    -5.6164  -5.3612

     highest occupied level (ev):    -5.3612

!    total energy              =     -93.73555791 Ry
     estimated scf accuracy    <          7.6E-13 Ry

     The total energy is the sum of the following terms:
     one-electron contribution =    -328.49354137 Ry
     hartree contribution      =     169.19766430 Ry
     xc contribution           =     -35.45661648 Ry
     ewald contribution        =     101.01693565 Ry

     convergence has been achieved in  17 iterations

     Forces acting on atoms (cartesian axes, Ry/au):

     atom    1 type  1   force =    -0.01564621   -0.01340051   -0.00096210
     atom    2 type  1   force =    -0.00898309   -0.01276217   -0.00055259
     atom    3 type  1   force =     0.02931897   -0.01136195    0.00239514
     atom    4 type  1   force =     0.00196013    0.01544604   -0.00056221
     atom    5 type  1   force =    -0.00260324    0.02035699   -0.00095066
     atom    6 type  1   force =    -0.02201184    0.00885053   -0.00020875
     atom    7 type  2   force =     0.01934464    0.01578588    0.00022310
     atom    8 type  2   force =    -0.00268355    0.02420131    0.00067158
     atom    9 type  2   force =    -0.01836094   -0.01608597    0.00066979
     atom   10 type  2   force =     0.00361308   -0.02475217    0.00022153
     atom   11 type  2   force =     0.02381109   -0.00928602    0.00029902
     atom   12 type  1   force =    -0.01249393    0.00474957    0.00432751
     atom   13 type  2   force =    -0.00440618   -0.01494668   -0.01066731
     atom   14 type  2   force =     0.00686339    0.01408211   -0.01073736
     atom   15 type  2   force =     0.00227769   -0.00087695    0.01583332

     Total force =     0.084587     Total SCF correction =     0.000002

     Writing output data file ./Tuloene.save/

     init_run     :      2.37s CPU      2.48s WALL (       1 calls)
     electrons    :     50.66s CPU     51.37s WALL (       1 calls)
     forces       :      1.45s CPU      1.51s WALL (       1 calls)

     Called by init_run:
     wfcinit      :      1.28s CPU      1.30s WALL (       1 calls)
     potinit      :      0.64s CPU      0.70s WALL (       1 calls)
     hinit0       :      0.23s CPU      0.25s WALL (       1 calls)

     Called by electrons:
     c_bands      :     34.98s CPU     35.20s WALL (      17 calls)
     sum_band     :      5.55s CPU      5.59s WALL (      17 calls)
     v_of_rho     :      7.98s CPU      8.43s WALL (      18 calls)
     mix_rho      :      2.36s CPU      2.39s WALL (      17 calls)

     Called by c_bands:
     init_us_2    :      0.41s CPU      0.42s WALL (      35 calls)
     regterg      :     34.44s CPU     34.65s WALL (      17 calls)

     Called by *egterg:
     rdiaghg      :      0.07s CPU      0.07s WALL (      74 calls)
     h_psi        :     29.12s CPU     29.31s WALL (      75 calls)
     g_psi        :      0.08s CPU      0.08s WALL (      57 calls)

     Called by h_psi:
     h_psi:calbec :      4.12s CPU      4.14s WALL (      75 calls)
     vloc_psi     :     21.40s CPU     21.56s WALL (      75 calls)
     add_vuspsi   :      3.43s CPU      3.44s WALL (      75 calls)

     General routines
     calbec       :      4.45s CPU      4.47s WALL (      79 calls)
     fft          :      5.44s CPU      5.54s WALL (     152 calls)
     ffts         :      0.59s CPU      0.60s WALL (      17 calls)
     fftw         :     20.29s CPU     20.43s WALL (    1125 calls)

     Parallel routines

     PWSCF        :     54.57s CPU     55.48s WALL


   This run was terminated on:   1:24:36  24May2021            

=------------------------------------------------------------------------------=
   JOB DONE.
=------------------------------------------------------------------------------=
