
     Program PWSCF v.6.7GPU starts on 24May2021 at  1:20:39 

     This program is part of the open-source Quantum ESPRESSO suite
     for quantum simulation of materials; please cite
         "P. Giannozzi et al., J. Phys.:Condens. Matter 21 395502 (2009);
         "P. Giannozzi et al., J. Phys.:Condens. Matter 29 465901 (2017);
         "P. Giannozzi et al., J. Chem. Phys. 152 154105 (2020);
          URL http://www.quantum-espresso.org", 
     in publications or presentations arising from this work. More details at
     http://www.quantum-espresso.org/quote

     Parallel version (MPI), running on     4 processors

     MPI processes distributed on     1 nodes
     R & G space division:  proc/nbgrp/npool/nimage =       4
     Waiting for input...
     Reading input from standard input
     Message from routine read_cards :
     DEPRECATED: no units specified in CELL_PARAMETERS card

     Current dimensions of program PWSCF are:
     Max number of different atomic species (ntypx) = 10
     Max number of k-points (npk) =  40000
     Max angular momentum in pseudopotentials (lmaxx) =  3

     gamma-point specific algorithms are used

     Subspace diagonalization in iterative solution of the eigenvalue problem:
     one sub-group per band group will be used
     scalapack distributed-memory algorithm (size of sub-group:  2*  2 procs)


     Parallelization info
     --------------------
     sticks:   dense  smooth     PW     G-vecs:    dense   smooth      PW
     Min        2386    2386    595               175366   175366   21912
     Max        2388    2388    598               175372   175372   21918
     Sum        9549    9549   2385               701475   701475   87655

     Using Slab Decomposition



     bravais-lattice index     =            0
     lattice parameter (alat)  =      20.0000  a.u.
     unit-cell volume          =    8000.0000 (a.u.)^3
     number of atoms/cell      =           15
     number of atomic types    =            2
     number of electrons       =        36.00
     number of Kohn-Sham states=           18
     kinetic-energy cutoff     =      75.0000  Ry
     charge density cutoff     =     300.0000  Ry
     scf convergence threshold =      1.0E-12
     mixing beta               =       0.5000
     number of iterations used =            8  plain     mixing
     Exchange-correlation= PBE
                           (   1   4   3   4   0   0   0)

     celldm(1)=  20.000000  celldm(2)=   0.000000  celldm(3)=   0.000000
     celldm(4)=   0.000000  celldm(5)=   0.000000  celldm(6)=   0.000000

     crystal axes: (cart. coord. in units of alat)
               a(1) = (   1.000000   0.000000   0.000000 )  
               a(2) = (   0.000000   1.000000   0.000000 )  
               a(3) = (   0.000000   0.000000   1.000000 )  

     reciprocal axes: (cart. coord. in units 2 pi/alat)
               b(1) = (  1.000000  0.000000  0.000000 )  
               b(2) = (  0.000000  1.000000  0.000000 )  
               b(3) = (  0.000000  0.000000  1.000000 )  


     PseudoPot. # 1 for C  read from file:
     /home/ciga/builds/pseudo_potentials/C.upf
     MD5 check sum: d80ec9912146af6c4c1760317d1f95e9
     Pseudo is Norm-conserving + core correction, Zval =  4.0
     Generated using ONCVPSP code by D. R. Hamann
     Using radial grid of 1248 points,  4 beta functions with: 
                l(1) =   0
                l(2) =   0
                l(3) =   1
                l(4) =   1

     PseudoPot. # 2 for H  read from file:
     /home/ciga/builds/pseudo_potentials/H.upf
     MD5 check sum: 418cee52d0c413ae40802e6cc37ab9e3
     Pseudo is Norm-conserving, Zval =  1.0
     Generated using ONCVPSP code by D. R. Hamann
     Using radial grid of 1166 points,  3 beta functions with: 
                l(1) =   0
                l(2) =   0
                l(3) =   1

     atomic species   valence    mass     pseudopotential
        C              4.00    12.01070     C ( 1.00)
        H              1.00     1.00794     H ( 1.00)

     No symmetry found



   Cartesian axes

     site n.     atom                  positions (alat units)
         1           C   tau(   1) = (  -0.1031413  -0.0826661   0.0000000  )
         2           C   tau(   2) = (   0.0200216  -0.1306557   0.0000000  )
         3           C   tau(   3) = (   0.1231535  -0.0479896   0.0000000  )
         4           C   tau(   4) = (   0.1031413   0.0826661   0.0000000  )
         5           C   tau(   5) = (  -0.0200216   0.1306462   0.0000000  )
         6           C   tau(   6) = (  -0.1231629   0.0479801   0.0000000  )
         7           H   tau(   7) = (  -0.1849757  -0.1482624   0.0000000  )
         8           H   tau(   8) = (   0.0359130  -0.2343245   0.0000000  )
         9           H   tau(   9) = (   0.1849757   0.1482624   0.0000000  )
        10           H   tau(  10) = (  -0.0359116   0.2343153   0.0000000  )
        11           H   tau(  11) = (  -0.2208834   0.0860653   0.0000000  )
        12           C   tau(  12) = (   0.2573317  -0.1002521   0.0000000  )
        13           H   tau(  13) = (   0.3209874  -0.0331470   0.0494434  )
        14           H   tau(  14) = (   0.2588326  -0.1927318   0.0494471  )
        15           H   tau(  15) = (   0.2899067  -0.1129400  -0.0988821  )

     number of k points=     1
                       cart. coord. in units 2pi/alat
        k(    1) = (   0.0000000   0.0000000   0.0000000), wk =   2.0000000

     Dense  grid:   350738 G-vectors     FFT dimensions: ( 120, 120, 120)

     Estimated max dynamical RAM per process >     100.75 MB

     Estimated total dynamical RAM >     403.01 MB

     Initial potential from superposition of free atoms

     starting charge   35.99961, renormalised to   36.00000

     negative rho (up, down):  9.916E-05 0.000E+00
     Starting wfcs are   36 randomized atomic wfcs

     total cpu time spent up to now is        2.0 secs

     Self-consistent Calculation

     iteration #  1     ecut=    75.00 Ry     beta= 0.50
     Davidson diagonalization with overlap
     ethr =  1.00E-02,  avg # of iterations =  2.0

     negative rho (up, down):  2.768E-05 0.000E+00

     total cpu time spent up to now is        4.2 secs

     total energy              =     -93.48679814 Ry
     estimated scf accuracy    <       1.67232595 Ry

     iteration #  2     ecut=    75.00 Ry     beta= 0.50
     Davidson diagonalization with overlap
     ethr =  4.65E-03,  avg # of iterations =  2.0

     negative rho (up, down):  9.785E-06 0.000E+00

     total cpu time spent up to now is        6.4 secs

     total energy              =     -93.73082747 Ry
     estimated scf accuracy    <       0.12319325 Ry

     iteration #  3     ecut=    75.00 Ry     beta= 0.50
     Davidson diagonalization with overlap
     ethr =  3.42E-04,  avg # of iterations =  2.0

     negative rho (up, down):  7.388E-07 0.000E+00

     total cpu time spent up to now is        8.2 secs

     total energy              =     -93.73039186 Ry
     estimated scf accuracy    <       0.02274618 Ry

     iteration #  4     ecut=    75.00 Ry     beta= 0.50
     Davidson diagonalization with overlap
     ethr =  6.32E-05,  avg # of iterations =  2.0

     negative rho (up, down):  9.085E-08 0.000E+00

     total cpu time spent up to now is       10.2 secs

     total energy              =     -93.73322827 Ry
     estimated scf accuracy    <       0.00142980 Ry

     iteration #  5     ecut=    75.00 Ry     beta= 0.50
     Davidson diagonalization with overlap
     ethr =  3.97E-06,  avg # of iterations =  3.0

     negative rho (up, down):  4.342E-08 0.000E+00

     total cpu time spent up to now is       12.6 secs

     total energy              =     -93.73374820 Ry
     estimated scf accuracy    <       0.00039653 Ry

     iteration #  6     ecut=    75.00 Ry     beta= 0.50
     Davidson diagonalization with overlap
     ethr =  1.10E-06,  avg # of iterations =  2.0

     total cpu time spent up to now is       14.7 secs

     total energy              =     -93.73380631 Ry
     estimated scf accuracy    <       0.00001804 Ry

     iteration #  7     ecut=    75.00 Ry     beta= 0.50
     Davidson diagonalization with overlap
     ethr =  5.01E-08,  avg # of iterations =  5.0

     total cpu time spent up to now is       17.4 secs

     total energy              =     -93.73381284 Ry
     estimated scf accuracy    <       0.00001483 Ry

     iteration #  8     ecut=    75.00 Ry     beta= 0.50
     Davidson diagonalization with overlap
     ethr =  4.12E-08,  avg # of iterations =  2.0

     total cpu time spent up to now is       19.5 secs

     total energy              =     -93.73381674 Ry
     estimated scf accuracy    <       0.00000065 Ry

     iteration #  9     ecut=    75.00 Ry     beta= 0.50
     Davidson diagonalization with overlap
     ethr =  1.82E-09,  avg # of iterations =  6.0

     total cpu time spent up to now is       22.2 secs

     total energy              =     -93.73381692 Ry
     estimated scf accuracy    <       0.00000039 Ry

     iteration # 10     ecut=    75.00 Ry     beta= 0.50
     Davidson diagonalization with overlap
     ethr =  1.08E-09,  avg # of iterations =  4.0

     total cpu time spent up to now is       24.3 secs

     total energy              =     -93.73381697 Ry
     estimated scf accuracy    <       0.00000002 Ry

     iteration # 11     ecut=    75.00 Ry     beta= 0.50
     Davidson diagonalization with overlap
     ethr =  5.26E-11,  avg # of iterations =  3.0

     total cpu time spent up to now is       26.7 secs

     total energy              =     -93.73381698 Ry
     estimated scf accuracy    <          1.7E-09 Ry

     iteration # 12     ecut=    75.00 Ry     beta= 0.50
     Davidson diagonalization with overlap
     ethr =  4.85E-12,  avg # of iterations =  7.0

     total cpu time spent up to now is       29.7 secs

     total energy              =     -93.73381698 Ry
     estimated scf accuracy    <          7.8E-09 Ry

     iteration # 13     ecut=    75.00 Ry     beta= 0.50
     Davidson diagonalization with overlap
     ethr =  4.85E-12,  avg # of iterations =  6.0

     total cpu time spent up to now is       32.3 secs

     total energy              =     -93.73381698 Ry
     estimated scf accuracy    <          7.0E-11 Ry

     iteration # 14     ecut=    75.00 Ry     beta= 0.50
     Davidson diagonalization with overlap
     ethr =  1.94E-13,  avg # of iterations =  5.0

     total cpu time spent up to now is       34.9 secs

     total energy              =     -93.73381698 Ry
     estimated scf accuracy    <          1.6E-11 Ry

     iteration # 15     ecut=    75.00 Ry     beta= 0.50
     Davidson diagonalization with overlap
     ethr =  1.00E-13,  avg # of iterations =  2.0

     total cpu time spent up to now is       36.7 secs

     total energy              =     -93.73381698 Ry
     estimated scf accuracy    <          2.0E-12 Ry

     iteration # 16     ecut=    75.00 Ry     beta= 0.50
     Davidson diagonalization with overlap
     ethr =  1.00E-13,  avg # of iterations =  2.0

     total cpu time spent up to now is       38.4 secs

     End of self-consistent calculation

          k = 0.0000 0.0000 0.0000 ( 43828 PWs)   bands (ev):

   -20.5777 -18.3548 -17.6788 -16.1035 -14.1525 -13.5612 -11.7553 -10.5531
   -10.2160  -9.6247  -9.4737  -9.0809  -8.5809  -8.0486  -7.4357  -7.3835
    -5.6164  -5.3612

     highest occupied level (ev):    -5.3612

!    total energy              =     -93.73381698 Ry
     estimated scf accuracy    <          2.7E-13 Ry

     The total energy is the sum of the following terms:
     one-electron contribution =    -328.49062263 Ry
     hartree contribution      =     169.19559890 Ry
     xc contribution           =     -35.45572889 Ry
     ewald contribution        =     101.01693565 Ry

     convergence has been achieved in  16 iterations

     Forces acting on atoms (cartesian axes, Ry/au):

     atom    1 type  1   force =    -0.01563251   -0.01339351   -0.00096234
     atom    2 type  1   force =    -0.00898818   -0.01275057   -0.00055222
     atom    3 type  1   force =     0.02925181   -0.01132594    0.00239587
     atom    4 type  1   force =     0.00194030    0.01544504   -0.00056209
     atom    5 type  1   force =    -0.00260776    0.02034711   -0.00095084
     atom    6 type  1   force =    -0.02200353    0.00883624   -0.00020853
     atom    7 type  2   force =     0.01931054    0.01576049    0.00022311
     atom    8 type  2   force =    -0.00267926    0.02416106    0.00067161
     atom    9 type  2   force =    -0.01832744   -0.01605910    0.00066983
     atom   10 type  2   force =     0.00360752   -0.02471259    0.00022156
     atom   11 type  2   force =     0.02377423   -0.00927001    0.00029909
     atom   12 type  1   force =    -0.01242365    0.00471506    0.00432736
     atom   13 type  2   force =    -0.00437629   -0.01491224   -0.01064286
     atom   14 type  2   force =     0.00686136    0.01404017   -0.01071384
     atom   15 type  2   force =     0.00229286   -0.00088124    0.01578429

     Total force =     0.084445     Total SCF correction =     0.000001

     Writing output data file ./Tuloene.save/

     init_run     :      1.80s CPU      1.88s WALL (       1 calls)
     electrons    :     35.88s CPU     36.42s WALL (       1 calls)
     forces       :      1.08s CPU      1.12s WALL (       1 calls)

     Called by init_run:
     wfcinit      :      0.94s CPU      0.96s WALL (       1 calls)
     potinit      :      0.54s CPU      0.58s WALL (       1 calls)
     hinit0       :      0.18s CPU      0.20s WALL (       1 calls)

     Called by electrons:
     c_bands      :     24.02s CPU     24.16s WALL (      16 calls)
     sum_band     :      4.18s CPU      4.21s WALL (      16 calls)
     v_of_rho     :      6.24s CPU      6.62s WALL (      17 calls)
     mix_rho      :      1.62s CPU      1.64s WALL (      16 calls)

     Called by c_bands:
     init_us_2    :      0.27s CPU      0.29s WALL (      33 calls)
     regterg      :     23.66s CPU     23.79s WALL (      16 calls)

     Called by *egterg:
     rdiaghg      :      0.07s CPU      0.07s WALL (      71 calls)
     h_psi        :     20.35s CPU     20.48s WALL (      72 calls)
     g_psi        :      0.05s CPU      0.05s WALL (      55 calls)

     Called by h_psi:
     h_psi:calbec :      2.75s CPU      2.75s WALL (      72 calls)
     vloc_psi     :     15.27s CPU     15.38s WALL (      72 calls)
     add_vuspsi   :      2.22s CPU      2.23s WALL (      72 calls)

     General routines
     calbec       :      2.97s CPU      2.98s WALL (      76 calls)
     fft          :      4.13s CPU      4.21s WALL (     144 calls)
     ffts         :      0.44s CPU      0.44s WALL (      16 calls)
     fftw         :     14.28s CPU     14.38s WALL (    1068 calls)

     Parallel routines

     PWSCF        :     38.86s CPU     39.56s WALL


   This run was terminated on:   1:21:18  24May2021            

=------------------------------------------------------------------------------=
   JOB DONE.
=------------------------------------------------------------------------------=
