
     Program PWSCF v.6.7GPU starts on 24May2021 at  1:19: 3 

     This program is part of the open-source Quantum ESPRESSO suite
     for quantum simulation of materials; please cite
         "P. Giannozzi et al., J. Phys.:Condens. Matter 21 395502 (2009);
         "P. Giannozzi et al., J. Phys.:Condens. Matter 29 465901 (2017);
         "P. Giannozzi et al., J. Chem. Phys. 152 154105 (2020);
          URL http://www.quantum-espresso.org", 
     in publications or presentations arising from this work. More details at
     http://www.quantum-espresso.org/quote

     Parallel version (MPI), running on     4 processors

     MPI processes distributed on     1 nodes
     R & G space division:  proc/nbgrp/npool/nimage =       4
     Waiting for input...
     Reading input from standard input
     Message from routine read_cards :
     DEPRECATED: no units specified in CELL_PARAMETERS card

     Current dimensions of program PWSCF are:
     Max number of different atomic species (ntypx) = 10
     Max number of k-points (npk) =  40000
     Max angular momentum in pseudopotentials (lmaxx) =  3

     gamma-point specific algorithms are used

     Subspace diagonalization in iterative solution of the eigenvalue problem:
     one sub-group per band group will be used
     scalapack distributed-memory algorithm (size of sub-group:  2*  2 procs)


     Parallelization info
     --------------------
     sticks:   dense  smooth     PW     G-vecs:    dense   smooth      PW
     Min        1910    1910    473               125614   125614   15665
     Max        1912    1912    476               125624   125624   15668
     Sum        7645    7645   1901               502479   502479   62669

     Using Slab Decomposition



     bravais-lattice index     =            0
     lattice parameter (alat)  =      20.0000  a.u.
     unit-cell volume          =    8000.0000 (a.u.)^3
     number of atoms/cell      =           15
     number of atomic types    =            2
     number of electrons       =        36.00
     number of Kohn-Sham states=           18
     kinetic-energy cutoff     =      60.0000  Ry
     charge density cutoff     =     240.0000  Ry
     scf convergence threshold =      1.0E-12
     mixing beta               =       0.5000
     number of iterations used =            8  plain     mixing
     Exchange-correlation= PBE
                           (   1   4   3   4   0   0   0)

     celldm(1)=  20.000000  celldm(2)=   0.000000  celldm(3)=   0.000000
     celldm(4)=   0.000000  celldm(5)=   0.000000  celldm(6)=   0.000000

     crystal axes: (cart. coord. in units of alat)
               a(1) = (   1.000000   0.000000   0.000000 )  
               a(2) = (   0.000000   1.000000   0.000000 )  
               a(3) = (   0.000000   0.000000   1.000000 )  

     reciprocal axes: (cart. coord. in units 2 pi/alat)
               b(1) = (  1.000000  0.000000  0.000000 )  
               b(2) = (  0.000000  1.000000  0.000000 )  
               b(3) = (  0.000000  0.000000  1.000000 )  


     PseudoPot. # 1 for C  read from file:
     /home/ciga/builds/pseudo_potentials/C.upf
     MD5 check sum: d80ec9912146af6c4c1760317d1f95e9
     Pseudo is Norm-conserving + core correction, Zval =  4.0
     Generated using ONCVPSP code by D. R. Hamann
     Using radial grid of 1248 points,  4 beta functions with: 
                l(1) =   0
                l(2) =   0
                l(3) =   1
                l(4) =   1

     PseudoPot. # 2 for H  read from file:
     /home/ciga/builds/pseudo_potentials/H.upf
     MD5 check sum: 418cee52d0c413ae40802e6cc37ab9e3
     Pseudo is Norm-conserving, Zval =  1.0
     Generated using ONCVPSP code by D. R. Hamann
     Using radial grid of 1166 points,  3 beta functions with: 
                l(1) =   0
                l(2) =   0
                l(3) =   1

     atomic species   valence    mass     pseudopotential
        C              4.00    12.01070     C ( 1.00)
        H              1.00     1.00794     H ( 1.00)

     No symmetry found



   Cartesian axes

     site n.     atom                  positions (alat units)
         1           C   tau(   1) = (  -0.1031413  -0.0826661   0.0000000  )
         2           C   tau(   2) = (   0.0200216  -0.1306557   0.0000000  )
         3           C   tau(   3) = (   0.1231535  -0.0479896   0.0000000  )
         4           C   tau(   4) = (   0.1031413   0.0826661   0.0000000  )
         5           C   tau(   5) = (  -0.0200216   0.1306462   0.0000000  )
         6           C   tau(   6) = (  -0.1231629   0.0479801   0.0000000  )
         7           H   tau(   7) = (  -0.1849757  -0.1482624   0.0000000  )
         8           H   tau(   8) = (   0.0359130  -0.2343245   0.0000000  )
         9           H   tau(   9) = (   0.1849757   0.1482624   0.0000000  )
        10           H   tau(  10) = (  -0.0359116   0.2343153   0.0000000  )
        11           H   tau(  11) = (  -0.2208834   0.0860653   0.0000000  )
        12           C   tau(  12) = (   0.2573317  -0.1002521   0.0000000  )
        13           H   tau(  13) = (   0.3209874  -0.0331470   0.0494434  )
        14           H   tau(  14) = (   0.2588326  -0.1927318   0.0494471  )
        15           H   tau(  15) = (   0.2899067  -0.1129400  -0.0988821  )

     number of k points=     1
                       cart. coord. in units 2pi/alat
        k(    1) = (   0.0000000   0.0000000   0.0000000), wk =   2.0000000

     Dense  grid:   251240 G-vectors     FFT dimensions: ( 100, 100, 100)

     Estimated max dynamical RAM per process >      68.21 MB

     Estimated total dynamical RAM >     272.86 MB

     Initial potential from superposition of free atoms

     starting charge   35.99961, renormalised to   36.00000

     negative rho (up, down):  2.429E-04 0.000E+00
     Starting wfcs are   36 randomized atomic wfcs

     total cpu time spent up to now is        1.3 secs

     Self-consistent Calculation

     iteration #  1     ecut=    60.00 Ry     beta= 0.50
     Davidson diagonalization with overlap
     ethr =  1.00E-02,  avg # of iterations =  2.0

     negative rho (up, down):  9.001E-05 0.000E+00

     total cpu time spent up to now is        2.6 secs

     total energy              =     -93.46582257 Ry
     estimated scf accuracy    <       1.66324754 Ry

     iteration #  2     ecut=    60.00 Ry     beta= 0.50
     Davidson diagonalization with overlap
     ethr =  4.62E-03,  avg # of iterations =  2.0

     negative rho (up, down):  3.535E-05 0.000E+00

     total cpu time spent up to now is        3.9 secs

     total energy              =     -93.70831697 Ry
     estimated scf accuracy    <       0.12311553 Ry

     iteration #  3     ecut=    60.00 Ry     beta= 0.50
     Davidson diagonalization with overlap
     ethr =  3.42E-04,  avg # of iterations =  2.0

     negative rho (up, down):  2.526E-06 0.000E+00

     total cpu time spent up to now is        5.1 secs

     total energy              =     -93.70772245 Ry
     estimated scf accuracy    <       0.02272336 Ry

     iteration #  4     ecut=    60.00 Ry     beta= 0.50
     Davidson diagonalization with overlap
     ethr =  6.31E-05,  avg # of iterations =  2.0

     negative rho (up, down):  2.012E-07 0.000E+00

     total cpu time spent up to now is        6.3 secs

     total energy              =     -93.71054026 Ry
     estimated scf accuracy    <       0.00144798 Ry

     iteration #  5     ecut=    60.00 Ry     beta= 0.50
     Davidson diagonalization with overlap
     ethr =  4.02E-06,  avg # of iterations =  3.0

     negative rho (up, down):  5.427E-08 0.000E+00

     total cpu time spent up to now is        7.7 secs

     total energy              =     -93.71105765 Ry
     estimated scf accuracy    <       0.00041053 Ry

     iteration #  6     ecut=    60.00 Ry     beta= 0.50
     Davidson diagonalization with overlap
     ethr =  1.14E-06,  avg # of iterations =  2.0

     total cpu time spent up to now is        9.1 secs

     total energy              =     -93.71111893 Ry
     estimated scf accuracy    <       0.00001705 Ry

     iteration #  7     ecut=    60.00 Ry     beta= 0.50
     Davidson diagonalization with overlap
     ethr =  4.74E-08,  avg # of iterations =  4.0

     total cpu time spent up to now is       10.7 secs

     total energy              =     -93.71112474 Ry
     estimated scf accuracy    <       0.00001462 Ry

     iteration #  8     ecut=    60.00 Ry     beta= 0.50
     Davidson diagonalization with overlap
     ethr =  4.06E-08,  avg # of iterations =  2.0

     total cpu time spent up to now is       12.0 secs

     total energy              =     -93.71112890 Ry
     estimated scf accuracy    <       0.00000084 Ry

     iteration #  9     ecut=    60.00 Ry     beta= 0.50
     Davidson diagonalization with overlap
     ethr =  2.33E-09,  avg # of iterations =  3.0

     total cpu time spent up to now is       13.5 secs

     total energy              =     -93.71112903 Ry
     estimated scf accuracy    <       0.00000019 Ry

     iteration # 10     ecut=    60.00 Ry     beta= 0.50
     Davidson diagonalization with overlap
     ethr =  5.14E-10,  avg # of iterations =  2.0

     total cpu time spent up to now is       14.8 secs

     total energy              =     -93.71112907 Ry
     estimated scf accuracy    <       0.00000001 Ry

     iteration # 11     ecut=    60.00 Ry     beta= 0.50
     Davidson diagonalization with overlap
     ethr =  3.02E-11,  avg # of iterations =  5.0

     total cpu time spent up to now is       16.4 secs

     total energy              =     -93.71112907 Ry
     estimated scf accuracy    <          3.5E-09 Ry

     iteration # 12     ecut=    60.00 Ry     beta= 0.50
     Davidson diagonalization with overlap
     ethr =  9.61E-12,  avg # of iterations =  5.0

     total cpu time spent up to now is       17.9 secs

     total energy              =     -93.71112907 Ry
     estimated scf accuracy    <          4.4E-09 Ry

     iteration # 13     ecut=    60.00 Ry     beta= 0.50
     Davidson diagonalization with overlap
     ethr =  9.61E-12,  avg # of iterations =  2.0

     total cpu time spent up to now is       19.2 secs

     total energy              =     -93.71112907 Ry
     estimated scf accuracy    <          1.2E-10 Ry

     iteration # 14     ecut=    60.00 Ry     beta= 0.50
     Davidson diagonalization with overlap
     ethr =  3.22E-13,  avg # of iterations =  5.0

     total cpu time spent up to now is       20.8 secs

     total energy              =     -93.71112907 Ry
     estimated scf accuracy    <          2.3E-11 Ry

     iteration # 15     ecut=    60.00 Ry     beta= 0.50
     Davidson diagonalization with overlap
     ethr =  1.00E-13,  avg # of iterations =  5.0

     total cpu time spent up to now is       22.1 secs

     total energy              =     -93.71112907 Ry
     estimated scf accuracy    <          5.7E-12 Ry

     iteration # 16     ecut=    60.00 Ry     beta= 0.50
     Davidson diagonalization with overlap
     ethr =  1.00E-13,  avg # of iterations =  2.0

     total cpu time spent up to now is       23.2 secs

     End of self-consistent calculation

          k = 0.0000 0.0000 0.0000 ( 31335 PWs)   bands (ev):

   -20.5876 -18.3641 -17.6880 -16.1114 -14.1587 -13.5670 -11.7561 -10.5550
   -10.2189  -9.6251  -9.4744  -9.0812  -8.5811  -8.0487  -7.4355  -7.3827
    -5.6152  -5.3599

     highest occupied level (ev):    -5.3599

!    total energy              =     -93.71112907 Ry
     estimated scf accuracy    <          9.3E-13 Ry

     The total energy is the sum of the following terms:
     one-electron contribution =    -328.45118652 Ry
     hartree contribution      =     169.16902412 Ry
     xc contribution           =     -35.44590228 Ry
     ewald contribution        =     101.01693561 Ry

     convergence has been achieved in  16 iterations

     Forces acting on atoms (cartesian axes, Ry/au):

     atom    1 type  1   force =    -0.01465708   -0.01267757   -0.00096547
     atom    2 type  1   force =    -0.00908569   -0.01146053   -0.00055153
     atom    3 type  1   force =     0.02902490   -0.01132417    0.00239874
     atom    4 type  1   force =     0.00100159    0.01462960   -0.00055750
     atom    5 type  1   force =    -0.00243053    0.01911731   -0.00095369
     atom    6 type  1   force =    -0.02082876    0.00845287   -0.00021009
     atom    7 type  2   force =     0.01865376    0.01523979    0.00022371
     atom    8 type  2   force =    -0.00255453    0.02335353    0.00067232
     atom    9 type  2   force =    -0.01767223   -0.01555046    0.00067026
     atom   10 type  2   force =     0.00348765   -0.02389409    0.00022193
     atom   11 type  2   force =     0.02300104   -0.00895752    0.00029992
     atom   12 type  1   force =    -0.01357580    0.00519595    0.00431742
     atom   13 type  2   force =    -0.00387284   -0.01444452   -0.01027602
     atom   14 type  2   force =     0.00691424    0.01331659   -0.01033491
     atom   15 type  2   force =     0.00259428   -0.00099679    0.01504490

     Total force =     0.081639     Total SCF correction =     0.000001

     Writing output data file ./Tuloene.save/

     init_run     :      1.14s CPU      1.20s WALL (       1 calls)
     electrons    :     21.60s CPU     21.94s WALL (       1 calls)
     forces       :      0.74s CPU      0.77s WALL (       1 calls)

     Called by init_run:
     wfcinit      :      0.57s CPU      0.58s WALL (       1 calls)
     potinit      :      0.35s CPU      0.38s WALL (       1 calls)
     hinit0       :      0.14s CPU      0.14s WALL (       1 calls)

     Called by electrons:
     c_bands      :     14.36s CPU     14.44s WALL (      16 calls)
     sum_band     :      2.51s CPU      2.53s WALL (      16 calls)
     v_of_rho     :      3.72s CPU      3.98s WALL (      17 calls)
     mix_rho      :      1.08s CPU      1.09s WALL (      16 calls)

     Called by c_bands:
     init_us_2    :      0.20s CPU      0.21s WALL (      33 calls)
     regterg      :     14.09s CPU     14.17s WALL (      16 calls)

     Called by *egterg:
     rdiaghg      :      0.06s CPU      0.06s WALL (      64 calls)
     h_psi        :     11.93s CPU     12.00s WALL (      65 calls)
     g_psi        :      0.03s CPU      0.03s WALL (      48 calls)

     Called by h_psi:
     h_psi:calbec :      1.92s CPU      1.93s WALL (      65 calls)
     vloc_psi     :      8.42s CPU      8.48s WALL (      65 calls)
     add_vuspsi   :      1.52s CPU      1.52s WALL (      65 calls)

     General routines
     calbec       :      2.08s CPU      2.08s WALL (      69 calls)
     fft          :      2.48s CPU      2.55s WALL (     144 calls)
     ffts         :      0.27s CPU      0.28s WALL (      16 calls)
     fftw         :      7.82s CPU      7.87s WALL (    1038 calls)

     Parallel routines

     PWSCF        :     23.55s CPU     24.00s WALL


   This run was terminated on:   1:19:27  24May2021            

=------------------------------------------------------------------------------=
   JOB DONE.
=------------------------------------------------------------------------------=
