
     Program PWSCF v.6.7GPU starts on 24May2021 at  1:21:18 

     This program is part of the open-source Quantum ESPRESSO suite
     for quantum simulation of materials; please cite
         "P. Giannozzi et al., J. Phys.:Condens. Matter 21 395502 (2009);
         "P. Giannozzi et al., J. Phys.:Condens. Matter 29 465901 (2017);
         "P. Giannozzi et al., J. Chem. Phys. 152 154105 (2020);
          URL http://www.quantum-espresso.org", 
     in publications or presentations arising from this work. More details at
     http://www.quantum-espresso.org/quote

     Parallel version (MPI), running on     4 processors

     MPI processes distributed on     1 nodes
     R & G space division:  proc/nbgrp/npool/nimage =       4
     Waiting for input...
     Reading input from standard input
     Message from routine read_cards :
     DEPRECATED: no units specified in CELL_PARAMETERS card

     Current dimensions of program PWSCF are:
     Max number of different atomic species (ntypx) = 10
     Max number of k-points (npk) =  40000
     Max angular momentum in pseudopotentials (lmaxx) =  3

     gamma-point specific algorithms are used

     Subspace diagonalization in iterative solution of the eigenvalue problem:
     one sub-group per band group will be used
     scalapack distributed-memory algorithm (size of sub-group:  2*  2 procs)


     Parallelization info
     --------------------
     sticks:   dense  smooth     PW     G-vecs:    dense   smooth      PW
     Min        2543    2543    637               193371   193371   24241
     Max        2548    2548    642               193374   193374   24244
     Sum       10185   10185   2561               773489   773489   96969

     Using Slab Decomposition



     bravais-lattice index     =            0
     lattice parameter (alat)  =      20.0000  a.u.
     unit-cell volume          =    8000.0000 (a.u.)^3
     number of atoms/cell      =           15
     number of atomic types    =            2
     number of electrons       =        36.00
     number of Kohn-Sham states=           18
     kinetic-energy cutoff     =      80.0000  Ry
     charge density cutoff     =     320.0000  Ry
     scf convergence threshold =      1.0E-12
     mixing beta               =       0.5000
     number of iterations used =            8  plain     mixing
     Exchange-correlation= PBE
                           (   1   4   3   4   0   0   0)

     celldm(1)=  20.000000  celldm(2)=   0.000000  celldm(3)=   0.000000
     celldm(4)=   0.000000  celldm(5)=   0.000000  celldm(6)=   0.000000

     crystal axes: (cart. coord. in units of alat)
               a(1) = (   1.000000   0.000000   0.000000 )  
               a(2) = (   0.000000   1.000000   0.000000 )  
               a(3) = (   0.000000   0.000000   1.000000 )  

     reciprocal axes: (cart. coord. in units 2 pi/alat)
               b(1) = (  1.000000  0.000000  0.000000 )  
               b(2) = (  0.000000  1.000000  0.000000 )  
               b(3) = (  0.000000  0.000000  1.000000 )  


     PseudoPot. # 1 for C  read from file:
     /home/ciga/builds/pseudo_potentials/C.upf
     MD5 check sum: d80ec9912146af6c4c1760317d1f95e9
     Pseudo is Norm-conserving + core correction, Zval =  4.0
     Generated using ONCVPSP code by D. R. Hamann
     Using radial grid of 1248 points,  4 beta functions with: 
                l(1) =   0
                l(2) =   0
                l(3) =   1
                l(4) =   1

     PseudoPot. # 2 for H  read from file:
     /home/ciga/builds/pseudo_potentials/H.upf
     MD5 check sum: 418cee52d0c413ae40802e6cc37ab9e3
     Pseudo is Norm-conserving, Zval =  1.0
     Generated using ONCVPSP code by D. R. Hamann
     Using radial grid of 1166 points,  3 beta functions with: 
                l(1) =   0
                l(2) =   0
                l(3) =   1

     atomic species   valence    mass     pseudopotential
        C              4.00    12.01070     C ( 1.00)
        H              1.00     1.00794     H ( 1.00)

     No symmetry found



   Cartesian axes

     site n.     atom                  positions (alat units)
         1           C   tau(   1) = (  -0.1031413  -0.0826661   0.0000000  )
         2           C   tau(   2) = (   0.0200216  -0.1306557   0.0000000  )
         3           C   tau(   3) = (   0.1231535  -0.0479896   0.0000000  )
         4           C   tau(   4) = (   0.1031413   0.0826661   0.0000000  )
         5           C   tau(   5) = (  -0.0200216   0.1306462   0.0000000  )
         6           C   tau(   6) = (  -0.1231629   0.0479801   0.0000000  )
         7           H   tau(   7) = (  -0.1849757  -0.1482624   0.0000000  )
         8           H   tau(   8) = (   0.0359130  -0.2343245   0.0000000  )
         9           H   tau(   9) = (   0.1849757   0.1482624   0.0000000  )
        10           H   tau(  10) = (  -0.0359116   0.2343153   0.0000000  )
        11           H   tau(  11) = (  -0.2208834   0.0860653   0.0000000  )
        12           C   tau(  12) = (   0.2573317  -0.1002521   0.0000000  )
        13           H   tau(  13) = (   0.3209874  -0.0331470   0.0494434  )
        14           H   tau(  14) = (   0.2588326  -0.1927318   0.0494471  )
        15           H   tau(  15) = (   0.2899067  -0.1129400  -0.0988821  )

     number of k points=     1
                       cart. coord. in units 2pi/alat
        k(    1) = (   0.0000000   0.0000000   0.0000000), wk =   2.0000000

     Dense  grid:   386745 G-vectors     FFT dimensions: ( 120, 120, 120)

     Estimated max dynamical RAM per process >     107.96 MB

     Estimated total dynamical RAM >     431.84 MB

     Initial potential from superposition of free atoms

     starting charge   35.99961, renormalised to   36.00000

     negative rho (up, down):  6.587E-05 0.000E+00
     Starting wfcs are   36 randomized atomic wfcs

     total cpu time spent up to now is        2.1 secs

     Self-consistent Calculation

     iteration #  1     ecut=    80.00 Ry     beta= 0.50
     Davidson diagonalization with overlap
     ethr =  1.00E-02,  avg # of iterations =  2.0

     negative rho (up, down):  1.546E-05 0.000E+00

     total cpu time spent up to now is        4.4 secs

     total energy              =     -93.48766224 Ry
     estimated scf accuracy    <       1.67304460 Ry

     iteration #  2     ecut=    80.00 Ry     beta= 0.50
     Davidson diagonalization with overlap
     ethr =  4.65E-03,  avg # of iterations =  2.0

     negative rho (up, down):  5.019E-06 0.000E+00

     total cpu time spent up to now is        6.7 secs

     total energy              =     -93.73211354 Ry
     estimated scf accuracy    <       0.12322991 Ry

     iteration #  3     ecut=    80.00 Ry     beta= 0.50
     Davidson diagonalization with overlap
     ethr =  3.42E-04,  avg # of iterations =  2.0

     negative rho (up, down):  3.397E-07 0.000E+00

     total cpu time spent up to now is        8.6 secs

     total energy              =     -93.73163988 Ry
     estimated scf accuracy    <       0.02277496 Ry

     iteration #  4     ecut=    80.00 Ry     beta= 0.50
     Davidson diagonalization with overlap
     ethr =  6.33E-05,  avg # of iterations =  2.0

     negative rho (up, down):  4.010E-08 0.000E+00

     total cpu time spent up to now is       10.8 secs

     total energy              =     -93.73448041 Ry
     estimated scf accuracy    <       0.00143258 Ry

     iteration #  5     ecut=    80.00 Ry     beta= 0.50
     Davidson diagonalization with overlap
     ethr =  3.98E-06,  avg # of iterations =  3.0

     negative rho (up, down):  1.983E-08 0.000E+00

     total cpu time spent up to now is       13.2 secs

     total energy              =     -93.73499786 Ry
     estimated scf accuracy    <       0.00040736 Ry

     iteration #  6     ecut=    80.00 Ry     beta= 0.50
     Davidson diagonalization with overlap
     ethr =  1.13E-06,  avg # of iterations =  2.0

     total cpu time spent up to now is       15.5 secs

     total energy              =     -93.73505961 Ry
     estimated scf accuracy    <       0.00001705 Ry

     iteration #  7     ecut=    80.00 Ry     beta= 0.50
     Davidson diagonalization with overlap
     ethr =  4.74E-08,  avg # of iterations =  5.0

     total cpu time spent up to now is       18.3 secs

     total energy              =     -93.73506604 Ry
     estimated scf accuracy    <       0.00001443 Ry

     iteration #  8     ecut=    80.00 Ry     beta= 0.50
     Davidson diagonalization with overlap
     ethr =  4.01E-08,  avg # of iterations =  2.0

     total cpu time spent up to now is       20.6 secs

     total energy              =     -93.73506971 Ry
     estimated scf accuracy    <       0.00000056 Ry

     iteration #  9     ecut=    80.00 Ry     beta= 0.50
     Davidson diagonalization with overlap
     ethr =  1.57E-09,  avg # of iterations =  6.0

     total cpu time spent up to now is       23.4 secs

     total energy              =     -93.73506984 Ry
     estimated scf accuracy    <       0.00000046 Ry

     iteration # 10     ecut=    80.00 Ry     beta= 0.50
     Davidson diagonalization with overlap
     ethr =  1.29E-09,  avg # of iterations =  4.0

     total cpu time spent up to now is       25.7 secs

     total energy              =     -93.73506992 Ry
     estimated scf accuracy    <       0.00000001 Ry

     iteration # 11     ecut=    80.00 Ry     beta= 0.50
     Davidson diagonalization with overlap
     ethr =  3.18E-11,  avg # of iterations =  5.0

     total cpu time spent up to now is       28.5 secs

     total energy              =     -93.73506993 Ry
     estimated scf accuracy    <          1.7E-09 Ry

     iteration # 12     ecut=    80.00 Ry     beta= 0.50
     Davidson diagonalization with overlap
     ethr =  4.80E-12,  avg # of iterations =  3.0

     total cpu time spent up to now is       31.2 secs

     total energy              =     -93.73506993 Ry
     estimated scf accuracy    <          4.2E-09 Ry

     iteration # 13     ecut=    80.00 Ry     beta= 0.50
     Davidson diagonalization with overlap
     ethr =  4.80E-12,  avg # of iterations =  2.0

     total cpu time spent up to now is       33.5 secs

     total energy              =     -93.73506993 Ry
     estimated scf accuracy    <          3.5E-10 Ry

     iteration # 14     ecut=    80.00 Ry     beta= 0.50
     Davidson diagonalization with overlap
     ethr =  9.71E-13,  avg # of iterations =  6.0

     total cpu time spent up to now is       36.2 secs

     total energy              =     -93.73506993 Ry
     estimated scf accuracy    <          2.0E-10 Ry

     iteration # 15     ecut=    80.00 Ry     beta= 0.50
     Davidson diagonalization with overlap
     ethr =  5.59E-13,  avg # of iterations =  3.0

     total cpu time spent up to now is       38.2 secs

     total energy              =     -93.73506993 Ry
     estimated scf accuracy    <          5.1E-11 Ry

     iteration # 16     ecut=    80.00 Ry     beta= 0.50
     Davidson diagonalization with overlap
     ethr =  1.41E-13,  avg # of iterations =  6.0

     total cpu time spent up to now is       40.8 secs

     total energy              =     -93.73506993 Ry
     estimated scf accuracy    <          1.3E-11 Ry

     iteration # 17     ecut=    80.00 Ry     beta= 0.50
     Davidson diagonalization with overlap
     ethr =  1.00E-13,  avg # of iterations =  2.0

     total cpu time spent up to now is       42.7 secs

     total energy              =     -93.73506993 Ry
     estimated scf accuracy    <          2.6E-12 Ry

     iteration # 18     ecut=    80.00 Ry     beta= 0.50
     Davidson diagonalization with overlap
     ethr =  1.00E-13,  avg # of iterations =  2.0

     total cpu time spent up to now is       44.4 secs

     End of self-consistent calculation

          k = 0.0000 0.0000 0.0000 ( 48485 PWs)   bands (ev):

   -20.5771 -18.3543 -17.6783 -16.1030 -14.1520 -13.5608 -11.7551 -10.5530
   -10.2158  -9.6246  -9.4737  -9.0809  -8.5809  -8.0485  -7.4358  -7.3835
    -5.6164  -5.3612

     highest occupied level (ev):    -5.3612

!    total energy              =     -93.73506993 Ry
     estimated scf accuracy    <          2.0E-14 Ry

     The total energy is the sum of the following terms:
     one-electron contribution =    -328.49273688 Ry
     hartree contribution      =     169.19708129 Ry
     xc contribution           =     -35.45634998 Ry
     ewald contribution        =     101.01693565 Ry

     convergence has been achieved in  18 iterations

     Forces acting on atoms (cartesian axes, Ry/au):

     atom    1 type  1   force =    -0.01566145   -0.01341212   -0.00096216
     atom    2 type  1   force =    -0.00897463   -0.01278264   -0.00055252
     atom    3 type  1   force =     0.02933272   -0.01136424    0.00239575
     atom    4 type  1   force =     0.00197890    0.01545578   -0.00056216
     atom    5 type  1   force =    -0.00260826    0.02037712   -0.00095073
     atom    6 type  1   force =    -0.02202984    0.00885499   -0.00020867
     atom    7 type  2   force =     0.01933617    0.01577839    0.00022309
     atom    8 type  2   force =    -0.00268194    0.02418952    0.00067155
     atom    9 type  2   force =    -0.01835256   -0.01607847    0.00066977
     atom   10 type  2   force =     0.00361133   -0.02474036    0.00022152
     atom   11 type  2   force =     0.02380044   -0.00928178    0.00029902
     atom   12 type  1   force =    -0.01249895    0.00474929    0.00432837
     atom   13 type  2   force =    -0.00439796   -0.01493790   -0.01066118
     atom   14 type  2   force =     0.00686367    0.01407105   -0.01073132
     atom   15 type  2   force =     0.00228237   -0.00087864    0.01581968

     Total force =     0.084587     Total SCF correction =     0.000000

     Writing output data file ./Tuloene.save/

     init_run     :      1.91s CPU      1.98s WALL (       1 calls)
     electrons    :     41.73s CPU     42.40s WALL (       1 calls)
     forces       :      1.19s CPU      1.20s WALL (       1 calls)

     Called by init_run:
     wfcinit      :      0.99s CPU      1.01s WALL (       1 calls)
     potinit      :      0.55s CPU      0.60s WALL (       1 calls)
     hinit0       :      0.20s CPU      0.21s WALL (       1 calls)

     Called by electrons:
     c_bands      :     27.86s CPU     28.02s WALL (      18 calls)
     sum_band     :      4.87s CPU      4.90s WALL (      18 calls)
     v_of_rho     :      7.12s CPU      7.60s WALL (      19 calls)
     mix_rho      :      2.03s CPU      2.06s WALL (      18 calls)

     Called by c_bands:
     init_us_2    :      0.34s CPU      0.35s WALL (      37 calls)
     regterg      :     27.41s CPU     27.57s WALL (      18 calls)

     Called by *egterg:
     rdiaghg      :      0.07s CPU      0.07s WALL (      77 calls)
     h_psi        :     23.25s CPU     23.40s WALL (      78 calls)
     g_psi        :      0.06s CPU      0.06s WALL (      59 calls)

     Called by h_psi:
     h_psi:calbec :      3.32s CPU      3.33s WALL (      78 calls)
     vloc_psi     :     17.08s CPU     17.21s WALL (      78 calls)
     add_vuspsi   :      2.72s CPU      2.73s WALL (      78 calls)

     General routines
     calbec       :      3.57s CPU      3.58s WALL (      82 calls)
     fft          :      4.78s CPU      4.88s WALL (     160 calls)
     ffts         :      0.50s CPU      0.51s WALL (      18 calls)
     fftw         :     16.10s CPU     16.21s WALL (    1162 calls)

     Parallel routines

     PWSCF        :     44.92s CPU     45.71s WALL


   This run was terminated on:   1:22: 4  24May2021            

=------------------------------------------------------------------------------=
   JOB DONE.
=------------------------------------------------------------------------------=
