
     Program PWSCF v.6.7GPU starts on 24May2021 at  1:22:48 

     This program is part of the open-source Quantum ESPRESSO suite
     for quantum simulation of materials; please cite
         "P. Giannozzi et al., J. Phys.:Condens. Matter 21 395502 (2009);
         "P. Giannozzi et al., J. Phys.:Condens. Matter 29 465901 (2017);
         "P. Giannozzi et al., J. Chem. Phys. 152 154105 (2020);
          URL http://www.quantum-espresso.org", 
     in publications or presentations arising from this work. More details at
     http://www.quantum-espresso.org/quote

     Parallel version (MPI), running on     4 processors

     MPI processes distributed on     1 nodes
     R & G space division:  proc/nbgrp/npool/nimage =       4
     Waiting for input...
     Reading input from standard input
     Message from routine read_cards :
     DEPRECATED: no units specified in CELL_PARAMETERS card

     Current dimensions of program PWSCF are:
     Max number of different atomic species (ntypx) = 10
     Max number of k-points (npk) =  40000
     Max angular momentum in pseudopotentials (lmaxx) =  3

     gamma-point specific algorithms are used

     Subspace diagonalization in iterative solution of the eigenvalue problem:
     one sub-group per band group will be used
     scalapack distributed-memory algorithm (size of sub-group:  2*  2 procs)


     Parallelization info
     --------------------
     sticks:   dense  smooth     PW     G-vecs:    dense   smooth      PW
     Min        2862    2862    716               230578   230578   28824
     Max        2863    2863    718               230586   230586   28830
     Sum       11449   11449   2869               922329   922329  115313

     Using Slab Decomposition



     bravais-lattice index     =            0
     lattice parameter (alat)  =      20.0000  a.u.
     unit-cell volume          =    8000.0000 (a.u.)^3
     number of atoms/cell      =           15
     number of atomic types    =            2
     number of electrons       =        36.00
     number of Kohn-Sham states=           18
     kinetic-energy cutoff     =      90.0000  Ry
     charge density cutoff     =     360.0000  Ry
     scf convergence threshold =      1.0E-12
     mixing beta               =       0.5000
     number of iterations used =            8  plain     mixing
     Exchange-correlation= PBE
                           (   1   4   3   4   0   0   0)

     celldm(1)=  20.000000  celldm(2)=   0.000000  celldm(3)=   0.000000
     celldm(4)=   0.000000  celldm(5)=   0.000000  celldm(6)=   0.000000

     crystal axes: (cart. coord. in units of alat)
               a(1) = (   1.000000   0.000000   0.000000 )  
               a(2) = (   0.000000   1.000000   0.000000 )  
               a(3) = (   0.000000   0.000000   1.000000 )  

     reciprocal axes: (cart. coord. in units 2 pi/alat)
               b(1) = (  1.000000  0.000000  0.000000 )  
               b(2) = (  0.000000  1.000000  0.000000 )  
               b(3) = (  0.000000  0.000000  1.000000 )  


     PseudoPot. # 1 for C  read from file:
     /home/ciga/builds/pseudo_potentials/C.upf
     MD5 check sum: d80ec9912146af6c4c1760317d1f95e9
     Pseudo is Norm-conserving + core correction, Zval =  4.0
     Generated using ONCVPSP code by D. R. Hamann
     Using radial grid of 1248 points,  4 beta functions with: 
                l(1) =   0
                l(2) =   0
                l(3) =   1
                l(4) =   1

     PseudoPot. # 2 for H  read from file:
     /home/ciga/builds/pseudo_potentials/H.upf
     MD5 check sum: 418cee52d0c413ae40802e6cc37ab9e3
     Pseudo is Norm-conserving, Zval =  1.0
     Generated using ONCVPSP code by D. R. Hamann
     Using radial grid of 1166 points,  3 beta functions with: 
                l(1) =   0
                l(2) =   0
                l(3) =   1

     atomic species   valence    mass     pseudopotential
        C              4.00    12.01070     C ( 1.00)
        H              1.00     1.00794     H ( 1.00)

     No symmetry found



   Cartesian axes

     site n.     atom                  positions (alat units)
         1           C   tau(   1) = (  -0.1031413  -0.0826661   0.0000000  )
         2           C   tau(   2) = (   0.0200216  -0.1306557   0.0000000  )
         3           C   tau(   3) = (   0.1231535  -0.0479896   0.0000000  )
         4           C   tau(   4) = (   0.1031413   0.0826661   0.0000000  )
         5           C   tau(   5) = (  -0.0200216   0.1306462   0.0000000  )
         6           C   tau(   6) = (  -0.1231629   0.0479801   0.0000000  )
         7           H   tau(   7) = (  -0.1849757  -0.1482624   0.0000000  )
         8           H   tau(   8) = (   0.0359130  -0.2343245   0.0000000  )
         9           H   tau(   9) = (   0.1849757   0.1482624   0.0000000  )
        10           H   tau(  10) = (  -0.0359116   0.2343153   0.0000000  )
        11           H   tau(  11) = (  -0.2208834   0.0860653   0.0000000  )
        12           C   tau(  12) = (   0.2573317  -0.1002521   0.0000000  )
        13           H   tau(  13) = (   0.3209874  -0.0331470   0.0494434  )
        14           H   tau(  14) = (   0.2588326  -0.1927318   0.0494471  )
        15           H   tau(  15) = (   0.2899067  -0.1129400  -0.0988821  )

     number of k points=     1
                       cart. coord. in units 2pi/alat
        k(    1) = (   0.0000000   0.0000000   0.0000000), wk =   2.0000000

     Dense  grid:   461165 G-vectors     FFT dimensions: ( 125, 125, 125)

     Estimated max dynamical RAM per process >     127.61 MB

     Estimated total dynamical RAM >     510.44 MB

     Initial potential from superposition of free atoms

     starting charge   35.99961, renormalised to   36.00000

     negative rho (up, down):  1.063E-05 0.000E+00
     Starting wfcs are   36 randomized atomic wfcs

     total cpu time spent up to now is        2.5 secs

     Self-consistent Calculation

     iteration #  1     ecut=    90.00 Ry     beta= 0.50
     Davidson diagonalization with overlap
     ethr =  1.00E-02,  avg # of iterations =  2.0

     negative rho (up, down):  3.967E-07 0.000E+00

     total cpu time spent up to now is        5.4 secs

     total energy              =     -93.48762712 Ry
     estimated scf accuracy    <       1.67368748 Ry

     iteration #  2     ecut=    90.00 Ry     beta= 0.50
     Davidson diagonalization with overlap
     ethr =  4.65E-03,  avg # of iterations =  2.0

     negative rho (up, down):  5.788E-08 0.000E+00

     total cpu time spent up to now is        8.1 secs

     total energy              =     -93.73251768 Ry
     estimated scf accuracy    <       0.12340603 Ry

     iteration #  3     ecut=    90.00 Ry     beta= 0.50
     Davidson diagonalization with overlap
     ethr =  3.43E-04,  avg # of iterations =  2.0

     total cpu time spent up to now is       10.5 secs

     total energy              =     -93.73209353 Ry
     estimated scf accuracy    <       0.02280500 Ry

     iteration #  4     ecut=    90.00 Ry     beta= 0.50
     Davidson diagonalization with overlap
     ethr =  6.33E-05,  avg # of iterations =  2.0

     total cpu time spent up to now is       13.1 secs

     total energy              =     -93.73494231 Ry
     estimated scf accuracy    <       0.00144951 Ry

     iteration #  5     ecut=    90.00 Ry     beta= 0.50
     Davidson diagonalization with overlap
     ethr =  4.03E-06,  avg # of iterations =  3.0

     total cpu time spent up to now is       16.0 secs

     total energy              =     -93.73547156 Ry
     estimated scf accuracy    <       0.00041390 Ry

     iteration #  6     ecut=    90.00 Ry     beta= 0.50
     Davidson diagonalization with overlap
     ethr =  1.15E-06,  avg # of iterations =  2.0

     total cpu time spent up to now is       18.8 secs

     total energy              =     -93.73552965 Ry
     estimated scf accuracy    <       0.00001979 Ry

     iteration #  7     ecut=    90.00 Ry     beta= 0.50
     Davidson diagonalization with overlap
     ethr =  5.50E-08,  avg # of iterations =  5.0

     total cpu time spent up to now is       22.2 secs

     total energy              =     -93.73553775 Ry
     estimated scf accuracy    <       0.00001725 Ry

     iteration #  8     ecut=    90.00 Ry     beta= 0.50
     Davidson diagonalization with overlap
     ethr =  4.79E-08,  avg # of iterations =  2.0

     total cpu time spent up to now is       24.9 secs

     total energy              =     -93.73554130 Ry
     estimated scf accuracy    <       0.00000054 Ry

     iteration #  9     ecut=    90.00 Ry     beta= 0.50
     Davidson diagonalization with overlap
     ethr =  1.50E-09,  avg # of iterations =  7.0

     total cpu time spent up to now is       28.7 secs

     total energy              =     -93.73554146 Ry
     estimated scf accuracy    <       0.00000105 Ry

     iteration # 10     ecut=    90.00 Ry     beta= 0.50
     Davidson diagonalization with overlap
     ethr =  1.50E-09,  avg # of iterations =  4.0

     total cpu time spent up to now is       31.7 secs

     total energy              =     -93.73554166 Ry
     estimated scf accuracy    <          6.8E-09 Ry

     iteration # 11     ecut=    90.00 Ry     beta= 0.50
     Davidson diagonalization with overlap
     ethr =  1.90E-11,  avg # of iterations =  5.0

     total cpu time spent up to now is       35.2 secs

     total energy              =     -93.73554166 Ry
     estimated scf accuracy    <          2.1E-09 Ry

     iteration # 12     ecut=    90.00 Ry     beta= 0.50
     Davidson diagonalization with overlap
     ethr =  5.92E-12,  avg # of iterations =  2.0

     total cpu time spent up to now is       38.0 secs

     total energy              =     -93.73554166 Ry
     estimated scf accuracy    <          2.7E-10 Ry

     iteration # 13     ecut=    90.00 Ry     beta= 0.50
     Davidson diagonalization with overlap
     ethr =  7.53E-13,  avg # of iterations =  4.0

     total cpu time spent up to now is       41.0 secs

     total energy              =     -93.73554166 Ry
     estimated scf accuracy    <          2.3E-10 Ry

     iteration # 14     ecut=    90.00 Ry     beta= 0.50
     Davidson diagonalization with overlap
     ethr =  6.30E-13,  avg # of iterations =  2.0

     total cpu time spent up to now is       43.5 secs

     total energy              =     -93.73554166 Ry
     estimated scf accuracy    <          3.1E-11 Ry

     iteration # 15     ecut=    90.00 Ry     beta= 0.50
     Davidson diagonalization with overlap
     ethr =  1.00E-13,  avg # of iterations =  3.0

     total cpu time spent up to now is       46.3 secs

     total energy              =     -93.73554166 Ry
     estimated scf accuracy    <          2.8E-12 Ry

     iteration # 16     ecut=    90.00 Ry     beta= 0.50
     Davidson diagonalization with overlap
     ethr =  1.00E-13,  avg # of iterations =  1.0

     total cpu time spent up to now is       48.5 secs

     total energy              =     -93.73554166 Ry
     estimated scf accuracy    <          1.1E-12 Ry

     iteration # 17     ecut=    90.00 Ry     beta= 0.50
     Davidson diagonalization with overlap
     ethr =  1.00E-13,  avg # of iterations =  1.0

     total cpu time spent up to now is       50.5 secs

     End of self-consistent calculation

          k = 0.0000 0.0000 0.0000 ( 57657 PWs)   bands (ev):

   -20.5768 -18.3541 -17.6781 -16.1029 -14.1519 -13.5607 -11.7550 -10.5530
   -10.2157  -9.6246  -9.4736  -9.0808  -8.5809  -8.0485  -7.4358  -7.3835
    -5.6164  -5.3612

     highest occupied level (ev):    -5.3612

!    total energy              =     -93.73554166 Ry
     estimated scf accuracy    <          2.7E-13 Ry

     The total energy is the sum of the following terms:
     one-electron contribution =    -328.49351041 Ry
     hartree contribution      =     169.19764171 Ry
     xc contribution           =     -35.45660860 Ry
     ewald contribution        =     101.01693565 Ry

     convergence has been achieved in  17 iterations

     Forces acting on atoms (cartesian axes, Ry/au):

     atom    1 type  1   force =    -0.01564567   -0.01340006   -0.00096204
     atom    2 type  1   force =    -0.00898344   -0.01276177   -0.00055255
     atom    3 type  1   force =     0.02932020   -0.01136270    0.00239511
     atom    4 type  1   force =     0.00195954    0.01544610   -0.00056234
     atom    5 type  1   force =    -0.00260314    0.02035622   -0.00095058
     atom    6 type  1   force =    -0.02201121    0.00885049   -0.00020878
     atom    7 type  2   force =     0.01934346    0.01578495    0.00022309
     atom    8 type  2   force =    -0.00268337    0.02419993    0.00067156
     atom    9 type  2   force =    -0.01835985   -0.01608505    0.00066978
     atom   10 type  2   force =     0.00361282   -0.02475071    0.00022153
     atom   11 type  2   force =     0.02380983   -0.00928551    0.00029902
     atom   12 type  1   force =    -0.01249545    0.00475020    0.00432752
     atom   13 type  2   force =    -0.00440514   -0.01494554   -0.01066640
     atom   14 type  2   force =     0.00686330    0.01408055   -0.01073644
     atom   15 type  2   force =     0.00227813   -0.00087709    0.01583152

     Total force =     0.084584     Total SCF correction =     0.000001

     Writing output data file ./Tuloene.save/

     init_run     :      2.27s CPU      2.40s WALL (       1 calls)
     electrons    :     47.42s CPU     48.10s WALL (       1 calls)
     forces       :      1.37s CPU      1.42s WALL (       1 calls)

     Called by init_run:
     wfcinit      :      1.23s CPU      1.26s WALL (       1 calls)
     potinit      :      0.61s CPU      0.69s WALL (       1 calls)
     hinit0       :      0.23s CPU      0.25s WALL (       1 calls)

     Called by electrons:
     c_bands      :     32.20s CPU     32.39s WALL (      17 calls)
     sum_band     :      5.44s CPU      5.47s WALL (      17 calls)
     v_of_rho     :      7.77s CPU      8.22s WALL (      18 calls)
     mix_rho      :      2.21s CPU      2.25s WALL (      17 calls)

     Called by c_bands:
     init_us_2    :      0.38s CPU      0.39s WALL (      35 calls)
     regterg      :     31.69s CPU     31.88s WALL (      17 calls)

     Called by *egterg:
     rdiaghg      :      0.07s CPU      0.07s WALL (      66 calls)
     h_psi        :     27.23s CPU     27.40s WALL (      67 calls)
     g_psi        :      0.07s CPU      0.07s WALL (      49 calls)

     Called by h_psi:
     h_psi:calbec :      3.73s CPU      3.74s WALL (      67 calls)
     vloc_psi     :     20.27s CPU     20.42s WALL (      67 calls)
     add_vuspsi   :      3.08s CPU      3.09s WALL (      67 calls)

     General routines
     calbec       :      4.02s CPU      4.04s WALL (      71 calls)
     fft          :      5.23s CPU      5.35s WALL (     152 calls)
     ffts         :      0.58s CPU      0.59s WALL (      17 calls)
     fftw         :     19.37s CPU     19.50s WALL (    1095 calls)

     Parallel routines

     PWSCF        :     51.15s CPU     52.05s WALL


   This run was terminated on:   1:23:40  24May2021            

=------------------------------------------------------------------------------=
   JOB DONE.
=------------------------------------------------------------------------------=
