
     Program PWSCF v.6.7GPU starts on 24May2021 at  1:18:40 

     This program is part of the open-source Quantum ESPRESSO suite
     for quantum simulation of materials; please cite
         "P. Giannozzi et al., J. Phys.:Condens. Matter 21 395502 (2009);
         "P. Giannozzi et al., J. Phys.:Condens. Matter 29 465901 (2017);
         "P. Giannozzi et al., J. Chem. Phys. 152 154105 (2020);
          URL http://www.quantum-espresso.org", 
     in publications or presentations arising from this work. More details at
     http://www.quantum-espresso.org/quote

     Parallel version (MPI), running on     4 processors

     MPI processes distributed on     1 nodes
     R & G space division:  proc/nbgrp/npool/nimage =       4
     Waiting for input...
     Reading input from standard input
     Message from routine read_cards :
     DEPRECATED: no units specified in CELL_PARAMETERS card

     Current dimensions of program PWSCF are:
     Max number of different atomic species (ntypx) = 10
     Max number of k-points (npk) =  40000
     Max angular momentum in pseudopotentials (lmaxx) =  3

     gamma-point specific algorithms are used

     Subspace diagonalization in iterative solution of the eigenvalue problem:
     one sub-group per band group will be used
     scalapack distributed-memory algorithm (size of sub-group:  2*  2 procs)


     Parallelization info
     --------------------
     sticks:   dense  smooth     PW     G-vecs:    dense   smooth      PW
     Min        1753    1753    438               110351   110351   13793
     Max        1756    1756    440               110356   110356   13796
     Sum        7017    7017   1757               441415   441415   55179

     Using Slab Decomposition



     bravais-lattice index     =            0
     lattice parameter (alat)  =      20.0000  a.u.
     unit-cell volume          =    8000.0000 (a.u.)^3
     number of atoms/cell      =           15
     number of atomic types    =            2
     number of electrons       =        36.00
     number of Kohn-Sham states=           18
     kinetic-energy cutoff     =      55.0000  Ry
     charge density cutoff     =     220.0000  Ry
     scf convergence threshold =      1.0E-12
     mixing beta               =       0.5000
     number of iterations used =            8  plain     mixing
     Exchange-correlation= PBE
                           (   1   4   3   4   0   0   0)

     celldm(1)=  20.000000  celldm(2)=   0.000000  celldm(3)=   0.000000
     celldm(4)=   0.000000  celldm(5)=   0.000000  celldm(6)=   0.000000

     crystal axes: (cart. coord. in units of alat)
               a(1) = (   1.000000   0.000000   0.000000 )  
               a(2) = (   0.000000   1.000000   0.000000 )  
               a(3) = (   0.000000   0.000000   1.000000 )  

     reciprocal axes: (cart. coord. in units 2 pi/alat)
               b(1) = (  1.000000  0.000000  0.000000 )  
               b(2) = (  0.000000  1.000000  0.000000 )  
               b(3) = (  0.000000  0.000000  1.000000 )  


     PseudoPot. # 1 for C  read from file:
     /home/ciga/builds/pseudo_potentials/C.upf
     MD5 check sum: d80ec9912146af6c4c1760317d1f95e9
     Pseudo is Norm-conserving + core correction, Zval =  4.0
     Generated using ONCVPSP code by D. R. Hamann
     Using radial grid of 1248 points,  4 beta functions with: 
                l(1) =   0
                l(2) =   0
                l(3) =   1
                l(4) =   1

     PseudoPot. # 2 for H  read from file:
     /home/ciga/builds/pseudo_potentials/H.upf
     MD5 check sum: 418cee52d0c413ae40802e6cc37ab9e3
     Pseudo is Norm-conserving, Zval =  1.0
     Generated using ONCVPSP code by D. R. Hamann
     Using radial grid of 1166 points,  3 beta functions with: 
                l(1) =   0
                l(2) =   0
                l(3) =   1

     atomic species   valence    mass     pseudopotential
        C              4.00    12.01070     C ( 1.00)
        H              1.00     1.00794     H ( 1.00)

     No symmetry found



   Cartesian axes

     site n.     atom                  positions (alat units)
         1           C   tau(   1) = (  -0.1031413  -0.0826661   0.0000000  )
         2           C   tau(   2) = (   0.0200216  -0.1306557   0.0000000  )
         3           C   tau(   3) = (   0.1231535  -0.0479896   0.0000000  )
         4           C   tau(   4) = (   0.1031413   0.0826661   0.0000000  )
         5           C   tau(   5) = (  -0.0200216   0.1306462   0.0000000  )
         6           C   tau(   6) = (  -0.1231629   0.0479801   0.0000000  )
         7           H   tau(   7) = (  -0.1849757  -0.1482624   0.0000000  )
         8           H   tau(   8) = (   0.0359130  -0.2343245   0.0000000  )
         9           H   tau(   9) = (   0.1849757   0.1482624   0.0000000  )
        10           H   tau(  10) = (  -0.0359116   0.2343153   0.0000000  )
        11           H   tau(  11) = (  -0.2208834   0.0860653   0.0000000  )
        12           C   tau(  12) = (   0.2573317  -0.1002521   0.0000000  )
        13           H   tau(  13) = (   0.3209874  -0.0331470   0.0494434  )
        14           H   tau(  14) = (   0.2588326  -0.1927318   0.0494471  )
        15           H   tau(  15) = (   0.2899067  -0.1129400  -0.0988821  )

     number of k points=     1
                       cart. coord. in units 2pi/alat
        k(    1) = (   0.0000000   0.0000000   0.0000000), wk =   2.0000000

     Dense  grid:   220708 G-vectors     FFT dimensions: (  96,  96,  96)

     Estimated max dynamical RAM per process >      60.07 MB

     Estimated total dynamical RAM >     240.30 MB

     Initial potential from superposition of free atoms

     starting charge   35.99961, renormalised to   36.00000

     negative rho (up, down):  4.782E-04 0.000E+00
     Starting wfcs are   36 randomized atomic wfcs

     total cpu time spent up to now is        1.1 secs

     Self-consistent Calculation

     iteration #  1     ecut=    55.00 Ry     beta= 0.50
     Davidson diagonalization with overlap
     ethr =  1.00E-02,  avg # of iterations =  2.0

     negative rho (up, down):  1.990E-04 0.000E+00

     total cpu time spent up to now is        2.4 secs

     total energy              =     -93.44438895 Ry
     estimated scf accuracy    <       1.65139277 Ry

     iteration #  2     ecut=    55.00 Ry     beta= 0.50
     Davidson diagonalization with overlap
     ethr =  4.59E-03,  avg # of iterations =  2.0

     negative rho (up, down):  8.108E-05 0.000E+00

     total cpu time spent up to now is        3.5 secs

     total energy              =     -93.68352894 Ry
     estimated scf accuracy    <       0.12275746 Ry

     iteration #  3     ecut=    55.00 Ry     beta= 0.50
     Davidson diagonalization with overlap
     ethr =  3.41E-04,  avg # of iterations =  2.0

     negative rho (up, down):  6.132E-06 0.000E+00

     total cpu time spent up to now is        4.5 secs

     total energy              =     -93.68296431 Ry
     estimated scf accuracy    <       0.02254005 Ry

     iteration #  4     ecut=    55.00 Ry     beta= 0.50
     Davidson diagonalization with overlap
     ethr =  6.26E-05,  avg # of iterations =  2.0

     negative rho (up, down):  4.534E-07 0.000E+00

     total cpu time spent up to now is        5.6 secs

     total energy              =     -93.68574703 Ry
     estimated scf accuracy    <       0.00142482 Ry

     iteration #  5     ecut=    55.00 Ry     beta= 0.50
     Davidson diagonalization with overlap
     ethr =  3.96E-06,  avg # of iterations =  3.0

     negative rho (up, down):  1.104E-07 0.000E+00

     total cpu time spent up to now is        6.9 secs

     total energy              =     -93.68625661 Ry
     estimated scf accuracy    <       0.00039511 Ry

     iteration #  6     ecut=    55.00 Ry     beta= 0.50
     Davidson diagonalization with overlap
     ethr =  1.10E-06,  avg # of iterations =  2.0

     total cpu time spent up to now is        8.1 secs

     total energy              =     -93.68631519 Ry
     estimated scf accuracy    <       0.00001678 Ry

     iteration #  7     ecut=    55.00 Ry     beta= 0.50
     Davidson diagonalization with overlap
     ethr =  4.66E-08,  avg # of iterations =  5.0

     total cpu time spent up to now is        9.5 secs

     total energy              =     -93.68632194 Ry
     estimated scf accuracy    <       0.00001427 Ry

     iteration #  8     ecut=    55.00 Ry     beta= 0.50
     Davidson diagonalization with overlap
     ethr =  3.96E-08,  avg # of iterations =  2.0

     total cpu time spent up to now is       10.7 secs

     total energy              =     -93.68632534 Ry
     estimated scf accuracy    <       0.00000046 Ry

     iteration #  9     ecut=    55.00 Ry     beta= 0.50
     Davidson diagonalization with overlap
     ethr =  1.27E-09,  avg # of iterations =  6.0

     total cpu time spent up to now is       12.2 secs

     total energy              =     -93.68632546 Ry
     estimated scf accuracy    <       0.00000050 Ry

     iteration # 10     ecut=    55.00 Ry     beta= 0.50
     Davidson diagonalization with overlap
     ethr =  1.27E-09,  avg # of iterations =  4.0

     total cpu time spent up to now is       13.4 secs

     total energy              =     -93.68632555 Ry
     estimated scf accuracy    <       0.00000001 Ry

     iteration # 11     ecut=    55.00 Ry     beta= 0.50
     Davidson diagonalization with overlap
     ethr =  3.86E-11,  avg # of iterations =  5.0

     total cpu time spent up to now is       14.9 secs

     total energy              =     -93.68632556 Ry
     estimated scf accuracy    <          4.3E-09 Ry

     iteration # 12     ecut=    55.00 Ry     beta= 0.50
     Davidson diagonalization with overlap
     ethr =  1.18E-11,  avg # of iterations =  3.0

     total cpu time spent up to now is       16.3 secs

     total energy              =     -93.68632556 Ry
     estimated scf accuracy    <          4.2E-09 Ry

     iteration # 13     ecut=    55.00 Ry     beta= 0.50
     Davidson diagonalization with overlap
     ethr =  1.16E-11,  avg # of iterations =  1.0

     total cpu time spent up to now is       17.2 secs

     total energy              =     -93.68632556 Ry
     estimated scf accuracy    <          1.2E-09 Ry

     iteration # 14     ecut=    55.00 Ry     beta= 0.50
     Davidson diagonalization with overlap
     ethr =  3.46E-12,  avg # of iterations =  5.0

     total cpu time spent up to now is       18.6 secs

     total energy              =     -93.68632556 Ry
     estimated scf accuracy    <          3.8E-10 Ry

     iteration # 15     ecut=    55.00 Ry     beta= 0.50
     Davidson diagonalization with overlap
     ethr =  1.06E-12,  avg # of iterations =  3.0

     total cpu time spent up to now is       19.6 secs

     total energy              =     -93.68632556 Ry
     estimated scf accuracy    <          8.1E-11 Ry

     iteration # 16     ecut=    55.00 Ry     beta= 0.50
     Davidson diagonalization with overlap
     ethr =  2.25E-13,  avg # of iterations =  5.0

     total cpu time spent up to now is       20.9 secs

     total energy              =     -93.68632556 Ry
     estimated scf accuracy    <          5.8E-12 Ry

     iteration # 17     ecut=    55.00 Ry     beta= 0.50
     Davidson diagonalization with overlap
     ethr =  1.00E-13,  avg # of iterations =  1.0

     total cpu time spent up to now is       21.8 secs

     total energy              =     -93.68632556 Ry
     estimated scf accuracy    <          1.2E-12 Ry

     iteration # 18     ecut=    55.00 Ry     beta= 0.50
     Davidson diagonalization with overlap
     ethr =  1.00E-13,  avg # of iterations =  1.0

     total cpu time spent up to now is       22.7 secs

     End of self-consistent calculation

          k = 0.0000 0.0000 0.0000 ( 27590 PWs)   bands (ev):

   -20.5975 -18.3730 -17.6969 -16.1190 -14.1640 -13.5720 -11.7574 -10.5572
   -10.2207  -9.6250  -9.4737  -9.0803  -8.5806  -8.0485  -7.4345  -7.3828
    -5.6142  -5.3579

     highest occupied level (ev):    -5.3579

!    total energy              =     -93.68632556 Ry
     estimated scf accuracy    <          5.6E-14 Ry

     The total energy is the sum of the following terms:
     one-electron contribution =    -328.40795228 Ry
     hartree contribution      =     169.14083996 Ry
     xc contribution           =     -35.43614865 Ry
     ewald contribution        =     101.01693542 Ry

     convergence has been achieved in  18 iterations

     Forces acting on atoms (cartesian axes, Ry/au):

     atom    1 type  1   force =    -0.01587795   -0.01367613   -0.00096741
     atom    2 type  1   force =    -0.00908359   -0.01316621   -0.00055392
     atom    3 type  1   force =     0.03207672   -0.01249988    0.00240832
     atom    4 type  1   force =     0.00220669    0.01569221   -0.00056395
     atom    5 type  1   force =    -0.00246182    0.02076424   -0.00095432
     atom    6 type  1   force =    -0.02251540    0.00908631   -0.00021080
     atom    7 type  2   force =     0.01837748    0.01501373    0.00022395
     atom    8 type  2   force =    -0.00249242    0.02297987    0.00067290
     atom    9 type  2   force =    -0.01740315   -0.01529972    0.00067081
     atom   10 type  2   force =     0.00341255   -0.02353680    0.00022244
     atom   11 type  2   force =     0.02267432   -0.00883560    0.00030056
     atom   12 type  1   force =    -0.01492717    0.00570348    0.00431532
     atom   13 type  2   force =    -0.00360338   -0.01416462   -0.01007862
     atom   14 type  2   force =     0.00691785    0.01297361   -0.01016041
     atom   15 type  2   force =     0.00269926   -0.00103447    0.01467511

     Total force =     0.084213     Total SCF correction =     0.000000

     Writing output data file ./Tuloene.save/

     init_run     :      1.01s CPU      1.07s WALL (       1 calls)
     electrons    :     21.21s CPU     21.56s WALL (       1 calls)
     forces       :      0.65s CPU      0.67s WALL (       1 calls)

     Called by init_run:
     wfcinit      :      0.50s CPU      0.52s WALL (       1 calls)
     potinit      :      0.32s CPU      0.35s WALL (       1 calls)
     hinit0       :      0.12s CPU      0.14s WALL (       1 calls)

     Called by electrons:
     c_bands      :     13.95s CPU     14.04s WALL (      18 calls)
     sum_band     :      2.51s CPU      2.54s WALL (      18 calls)
     v_of_rho     :      3.76s CPU      3.96s WALL (      19 calls)
     mix_rho      :      1.06s CPU      1.08s WALL (      18 calls)

     Called by c_bands:
     init_us_2    :      0.19s CPU      0.20s WALL (      37 calls)
     regterg      :     13.68s CPU     13.78s WALL (      18 calls)

     Called by *egterg:
     rdiaghg      :      0.07s CPU      0.07s WALL (      72 calls)
     h_psi        :     11.57s CPU     11.67s WALL (      73 calls)
     g_psi        :      0.03s CPU      0.03s WALL (      54 calls)

     Called by h_psi:
     h_psi:calbec :      1.88s CPU      1.88s WALL (      73 calls)
     vloc_psi     :      8.15s CPU      8.23s WALL (      73 calls)
     add_vuspsi   :      1.47s CPU      1.48s WALL (      73 calls)

     General routines
     calbec       :      2.01s CPU      2.02s WALL (      77 calls)
     fft          :      2.47s CPU      2.54s WALL (     160 calls)
     ffts         :      0.27s CPU      0.27s WALL (      18 calls)
     fftw         :      7.61s CPU      7.68s WALL (    1136 calls)

     Parallel routines

     PWSCF        :     22.95s CPU     23.39s WALL


   This run was terminated on:   1:19: 3  24May2021            

=------------------------------------------------------------------------------=
   JOB DONE.
=------------------------------------------------------------------------------=
