
     Program PWSCF v.6.7GPU starts on 24May2021 at  1:19:27 

     This program is part of the open-source Quantum ESPRESSO suite
     for quantum simulation of materials; please cite
         "P. Giannozzi et al., J. Phys.:Condens. Matter 21 395502 (2009);
         "P. Giannozzi et al., J. Phys.:Condens. Matter 29 465901 (2017);
         "P. Giannozzi et al., J. Chem. Phys. 152 154105 (2020);
          URL http://www.quantum-espresso.org", 
     in publications or presentations arising from this work. More details at
     http://www.quantum-espresso.org/quote

     Parallel version (MPI), running on     4 processors

     MPI processes distributed on     1 nodes
     R & G space division:  proc/nbgrp/npool/nimage =       4
     Waiting for input...
     Reading input from standard input
     Message from routine read_cards :
     DEPRECATED: no units specified in CELL_PARAMETERS card

     Current dimensions of program PWSCF are:
     Max number of different atomic species (ntypx) = 10
     Max number of k-points (npk) =  40000
     Max angular momentum in pseudopotentials (lmaxx) =  3

     gamma-point specific algorithms are used

     Subspace diagonalization in iterative solution of the eigenvalue problem:
     one sub-group per band group will be used
     scalapack distributed-memory algorithm (size of sub-group:  2*  2 procs)


     Parallelization info
     --------------------
     sticks:   dense  smooth     PW     G-vecs:    dense   smooth      PW
     Min        2069    2069    518               141623   141623   17686
     Max        2072    2072    520               141628   141628   17689
     Sum        8285    8285   2077               566507   566507   70751

     Using Slab Decomposition



     bravais-lattice index     =            0
     lattice parameter (alat)  =      20.0000  a.u.
     unit-cell volume          =    8000.0000 (a.u.)^3
     number of atoms/cell      =           15
     number of atomic types    =            2
     number of electrons       =        36.00
     number of Kohn-Sham states=           18
     kinetic-energy cutoff     =      65.0000  Ry
     charge density cutoff     =     260.0000  Ry
     scf convergence threshold =      1.0E-12
     mixing beta               =       0.5000
     number of iterations used =            8  plain     mixing
     Exchange-correlation= PBE
                           (   1   4   3   4   0   0   0)

     celldm(1)=  20.000000  celldm(2)=   0.000000  celldm(3)=   0.000000
     celldm(4)=   0.000000  celldm(5)=   0.000000  celldm(6)=   0.000000

     crystal axes: (cart. coord. in units of alat)
               a(1) = (   1.000000   0.000000   0.000000 )  
               a(2) = (   0.000000   1.000000   0.000000 )  
               a(3) = (   0.000000   0.000000   1.000000 )  

     reciprocal axes: (cart. coord. in units 2 pi/alat)
               b(1) = (  1.000000  0.000000  0.000000 )  
               b(2) = (  0.000000  1.000000  0.000000 )  
               b(3) = (  0.000000  0.000000  1.000000 )  


     PseudoPot. # 1 for C  read from file:
     /home/ciga/builds/pseudo_potentials/C.upf
     MD5 check sum: d80ec9912146af6c4c1760317d1f95e9
     Pseudo is Norm-conserving + core correction, Zval =  4.0
     Generated using ONCVPSP code by D. R. Hamann
     Using radial grid of 1248 points,  4 beta functions with: 
                l(1) =   0
                l(2) =   0
                l(3) =   1
                l(4) =   1

     PseudoPot. # 2 for H  read from file:
     /home/ciga/builds/pseudo_potentials/H.upf
     MD5 check sum: 418cee52d0c413ae40802e6cc37ab9e3
     Pseudo is Norm-conserving, Zval =  1.0
     Generated using ONCVPSP code by D. R. Hamann
     Using radial grid of 1166 points,  3 beta functions with: 
                l(1) =   0
                l(2) =   0
                l(3) =   1

     atomic species   valence    mass     pseudopotential
        C              4.00    12.01070     C ( 1.00)
        H              1.00     1.00794     H ( 1.00)

     No symmetry found



   Cartesian axes

     site n.     atom                  positions (alat units)
         1           C   tau(   1) = (  -0.1031413  -0.0826661   0.0000000  )
         2           C   tau(   2) = (   0.0200216  -0.1306557   0.0000000  )
         3           C   tau(   3) = (   0.1231535  -0.0479896   0.0000000  )
         4           C   tau(   4) = (   0.1031413   0.0826661   0.0000000  )
         5           C   tau(   5) = (  -0.0200216   0.1306462   0.0000000  )
         6           C   tau(   6) = (  -0.1231629   0.0479801   0.0000000  )
         7           H   tau(   7) = (  -0.1849757  -0.1482624   0.0000000  )
         8           H   tau(   8) = (   0.0359130  -0.2343245   0.0000000  )
         9           H   tau(   9) = (   0.1849757   0.1482624   0.0000000  )
        10           H   tau(  10) = (  -0.0359116   0.2343153   0.0000000  )
        11           H   tau(  11) = (  -0.2208834   0.0860653   0.0000000  )
        12           C   tau(  12) = (   0.2573317  -0.1002521   0.0000000  )
        13           H   tau(  13) = (   0.3209874  -0.0331470   0.0494434  )
        14           H   tau(  14) = (   0.2588326  -0.1927318   0.0494471  )
        15           H   tau(  15) = (   0.2899067  -0.1129400  -0.0988821  )

     number of k points=     1
                       cart. coord. in units 2pi/alat
        k(    1) = (   0.0000000   0.0000000   0.0000000), wk =   2.0000000

     Dense  grid:   283254 G-vectors     FFT dimensions: ( 108, 108, 108)

     Estimated max dynamical RAM per process >      79.11 MB

     Estimated total dynamical RAM >     316.45 MB

     Initial potential from superposition of free atoms

     starting charge   35.99961, renormalised to   36.00000

     negative rho (up, down):  1.461E-04 0.000E+00
     Starting wfcs are   36 randomized atomic wfcs

     total cpu time spent up to now is        1.6 secs

     Self-consistent Calculation

     iteration #  1     ecut=    65.00 Ry     beta= 0.50
     Davidson diagonalization with overlap
     ethr =  1.00E-02,  avg # of iterations =  2.0

     negative rho (up, down):  4.819E-05 0.000E+00

     total cpu time spent up to now is        3.5 secs

     total energy              =     -93.47808529 Ry
     estimated scf accuracy    <       1.66804037 Ry

     iteration #  2     ecut=    65.00 Ry     beta= 0.50
     Davidson diagonalization with overlap
     ethr =  4.63E-03,  avg # of iterations =  2.0

     negative rho (up, down):  1.791E-05 0.000E+00

     total cpu time spent up to now is        5.4 secs

     total energy              =     -93.72135995 Ry
     estimated scf accuracy    <       0.12334588 Ry

     iteration #  3     ecut=    65.00 Ry     beta= 0.50
     Davidson diagonalization with overlap
     ethr =  3.43E-04,  avg # of iterations =  2.0

     negative rho (up, down):  1.294E-06 0.000E+00

     total cpu time spent up to now is        6.9 secs

     total energy              =     -93.72088656 Ry
     estimated scf accuracy    <       0.02273745 Ry

     iteration #  4     ecut=    65.00 Ry     beta= 0.50
     Davidson diagonalization with overlap
     ethr =  6.32E-05,  avg # of iterations =  2.0

     negative rho (up, down):  1.182E-07 0.000E+00

     total cpu time spent up to now is        8.6 secs

     total energy              =     -93.72370860 Ry
     estimated scf accuracy    <       0.00144025 Ry

     iteration #  5     ecut=    65.00 Ry     beta= 0.50
     Davidson diagonalization with overlap
     ethr =  4.00E-06,  avg # of iterations =  3.0

     negative rho (up, down):  4.207E-08 0.000E+00

     total cpu time spent up to now is       10.6 secs

     total energy              =     -93.72422842 Ry
     estimated scf accuracy    <       0.00040045 Ry

     iteration #  6     ecut=    65.00 Ry     beta= 0.50
     Davidson diagonalization with overlap
     ethr =  1.11E-06,  avg # of iterations =  2.0

     total cpu time spent up to now is       12.5 secs

     total energy              =     -93.72428585 Ry
     estimated scf accuracy    <       0.00001841 Ry

     iteration #  7     ecut=    65.00 Ry     beta= 0.50
     Davidson diagonalization with overlap
     ethr =  5.12E-08,  avg # of iterations =  5.0

     total cpu time spent up to now is       14.8 secs

     total energy              =     -93.72429294 Ry
     estimated scf accuracy    <       0.00001776 Ry

     iteration #  8     ecut=    65.00 Ry     beta= 0.50
     Davidson diagonalization with overlap
     ethr =  4.93E-08,  avg # of iterations =  2.0

     total cpu time spent up to now is       16.6 secs

     total energy              =     -93.72429667 Ry
     estimated scf accuracy    <       0.00000050 Ry

     iteration #  9     ecut=    65.00 Ry     beta= 0.50
     Davidson diagonalization with overlap
     ethr =  1.38E-09,  avg # of iterations =  5.0

     total cpu time spent up to now is       19.1 secs

     total energy              =     -93.72429679 Ry
     estimated scf accuracy    <       0.00000099 Ry

     iteration # 10     ecut=    65.00 Ry     beta= 0.50
     Davidson diagonalization with overlap
     ethr =  1.38E-09,  avg # of iterations =  4.0

     total cpu time spent up to now is       21.1 secs

     total energy              =     -93.72429698 Ry
     estimated scf accuracy    <          7.7E-09 Ry

     iteration # 11     ecut=    65.00 Ry     beta= 0.50
     Davidson diagonalization with overlap
     ethr =  2.15E-11,  avg # of iterations =  5.0

     total cpu time spent up to now is       23.6 secs

     total energy              =     -93.72429698 Ry
     estimated scf accuracy    <          4.2E-09 Ry

     iteration # 12     ecut=    65.00 Ry     beta= 0.50
     Davidson diagonalization with overlap
     ethr =  1.16E-11,  avg # of iterations =  2.0

     total cpu time spent up to now is       25.4 secs

     total energy              =     -93.72429698 Ry
     estimated scf accuracy    <          1.7E-09 Ry

     iteration # 13     ecut=    65.00 Ry     beta= 0.50
     Davidson diagonalization with overlap
     ethr =  4.62E-12,  avg # of iterations =  4.0

     total cpu time spent up to now is       27.3 secs

     total energy              =     -93.72429698 Ry
     estimated scf accuracy    <          9.1E-11 Ry

     iteration # 14     ecut=    65.00 Ry     beta= 0.50
     Davidson diagonalization with overlap
     ethr =  2.52E-13,  avg # of iterations =  5.0

     total cpu time spent up to now is       29.4 secs

     total energy              =     -93.72429698 Ry
     estimated scf accuracy    <          1.1E-11 Ry

     iteration # 15     ecut=    65.00 Ry     beta= 0.50
     Davidson diagonalization with overlap
     ethr =  1.00E-13,  avg # of iterations =  2.0

     total cpu time spent up to now is       31.1 secs

     total energy              =     -93.72429698 Ry
     estimated scf accuracy    <          1.8E-12 Ry

     iteration # 16     ecut=    65.00 Ry     beta= 0.50
     Davidson diagonalization with overlap
     ethr =  1.00E-13,  avg # of iterations =  1.0

     total cpu time spent up to now is       32.5 secs

     End of self-consistent calculation

          k = 0.0000 0.0000 0.0000 ( 35376 PWs)   bands (ev):

   -20.5821 -18.3589 -17.6830 -16.1069 -14.1554 -13.5640 -11.7562 -10.5536
   -10.2176  -9.6250  -9.4741  -9.0811  -8.5809  -8.0489  -7.4355  -7.3830
    -5.6161  -5.3608

     highest occupied level (ev):    -5.3608

!    total energy              =     -93.72429698 Ry
     estimated scf accuracy    <          7.1E-13 Ry

     The total energy is the sum of the following terms:
     one-electron contribution =    -328.47405491 Ry
     hartree contribution      =     169.18425683 Ry
     xc contribution           =     -35.45143454 Ry
     ewald contribution        =     101.01693565 Ry

     convergence has been achieved in  16 iterations

     Forces acting on atoms (cartesian axes, Ry/au):

     atom    1 type  1   force =    -0.01490738   -0.01280899   -0.00096371
     atom    2 type  1   force =    -0.00912214   -0.01181860   -0.00054914
     atom    3 type  1   force =     0.02848361   -0.01108143    0.00239634
     atom    4 type  1   force =     0.00122861    0.01485353   -0.00055999
     atom    5 type  1   force =    -0.00246211    0.01941239   -0.00095255
     atom    6 type  1   force =    -0.02111367    0.00852912   -0.00021054
     atom    7 type  2   force =     0.01900275    0.01551930    0.00022333
     atom    8 type  2   force =    -0.00261651    0.02378390    0.00067181
     atom    9 type  2   force =    -0.01801919   -0.01582582    0.00067001
     atom   10 type  2   force =     0.00355152   -0.02432960    0.00022177
     atom   11 type  2   force =     0.02340393   -0.00913076    0.00029960
     atom   12 type  1   force =    -0.01258536    0.00480367    0.00430739
     atom   13 type  2   force =    -0.00413809   -0.01467201   -0.01046099
     atom   14 type  2   force =     0.00687485    0.01370206   -0.01053009
     atom   15 type  2   force =     0.00241918   -0.00093677    0.01543676

     Total force =     0.082427     Total SCF correction =     0.000001

     Writing output data file ./Tuloene.save/

     init_run     :      1.50s CPU      1.57s WALL (       1 calls)
     electrons    :     30.35s CPU     30.88s WALL (       1 calls)
     forces       :      0.89s CPU      0.90s WALL (       1 calls)

     Called by init_run:
     wfcinit      :      0.81s CPU      0.83s WALL (       1 calls)
     potinit      :      0.43s CPU      0.47s WALL (       1 calls)
     hinit0       :      0.15s CPU      0.17s WALL (       1 calls)

     Called by electrons:
     c_bands      :     20.73s CPU     20.86s WALL (      16 calls)
     sum_band     :      3.57s CPU      3.59s WALL (      16 calls)
     v_of_rho     :      4.90s CPU      5.27s WALL (      17 calls)
     mix_rho      :      1.28s CPU      1.31s WALL (      16 calls)

     Called by c_bands:
     init_us_2    :      0.23s CPU      0.24s WALL (      33 calls)
     regterg      :     20.42s CPU     20.55s WALL (      16 calls)

     Called by *egterg:
     rdiaghg      :      0.06s CPU      0.06s WALL (      64 calls)
     h_psi        :     17.95s CPU     18.07s WALL (      65 calls)
     g_psi        :      0.04s CPU      0.04s WALL (      48 calls)

     Called by h_psi:
     h_psi:calbec :      2.27s CPU      2.28s WALL (      65 calls)
     vloc_psi     :     13.83s CPU     13.93s WALL (      65 calls)
     add_vuspsi   :      1.77s CPU      1.77s WALL (      65 calls)

     General routines
     calbec       :      2.44s CPU      2.45s WALL (      69 calls)
     fft          :      3.42s CPU      3.49s WALL (     144 calls)
     ffts         :      0.40s CPU      0.40s WALL (      16 calls)
     fftw         :     13.44s CPU     13.53s WALL (    1054 calls)

     Parallel routines

     PWSCF        :     32.82s CPU     33.47s WALL


   This run was terminated on:   1:20: 1  24May2021            

=------------------------------------------------------------------------------=
   JOB DONE.
=------------------------------------------------------------------------------=
