
     Program PWSCF v.6.7GPU starts on 24May2021 at  1:18:20 

     This program is part of the open-source Quantum ESPRESSO suite
     for quantum simulation of materials; please cite
         "P. Giannozzi et al., J. Phys.:Condens. Matter 21 395502 (2009);
         "P. Giannozzi et al., J. Phys.:Condens. Matter 29 465901 (2017);
         "P. Giannozzi et al., J. Chem. Phys. 152 154105 (2020);
          URL http://www.quantum-espresso.org", 
     in publications or presentations arising from this work. More details at
     http://www.quantum-espresso.org/quote

     Parallel version (MPI), running on     4 processors

     MPI processes distributed on     1 nodes
     R & G space division:  proc/nbgrp/npool/nimage =       4
     Waiting for input...
     Reading input from standard input
     Message from routine read_cards :
     DEPRECATED: no units specified in CELL_PARAMETERS card

     Current dimensions of program PWSCF are:
     Max number of different atomic species (ntypx) = 10
     Max number of k-points (npk) =  40000
     Max angular momentum in pseudopotentials (lmaxx) =  3

     gamma-point specific algorithms are used

     Subspace diagonalization in iterative solution of the eigenvalue problem:
     one sub-group per band group will be used
     scalapack distributed-memory algorithm (size of sub-group:  2*  2 procs)


     Parallelization info
     --------------------
     sticks:   dense  smooth     PW     G-vecs:    dense   smooth      PW
     Min        1591    1591    398                95580    95580   11954
     Max        1594    1594    400                95582    95582   11960
     Sum        6369    6369   1597               382323   382323   47833

     Using Slab Decomposition



     bravais-lattice index     =            0
     lattice parameter (alat)  =      20.0000  a.u.
     unit-cell volume          =    8000.0000 (a.u.)^3
     number of atoms/cell      =           15
     number of atomic types    =            2
     number of electrons       =        36.00
     number of Kohn-Sham states=           18
     kinetic-energy cutoff     =      50.0000  Ry
     charge density cutoff     =     200.0000  Ry
     scf convergence threshold =      1.0E-12
     mixing beta               =       0.5000
     number of iterations used =            8  plain     mixing
     Exchange-correlation= PBE
                           (   1   4   3   4   0   0   0)

     celldm(1)=  20.000000  celldm(2)=   0.000000  celldm(3)=   0.000000
     celldm(4)=   0.000000  celldm(5)=   0.000000  celldm(6)=   0.000000

     crystal axes: (cart. coord. in units of alat)
               a(1) = (   1.000000   0.000000   0.000000 )  
               a(2) = (   0.000000   1.000000   0.000000 )  
               a(3) = (   0.000000   0.000000   1.000000 )  

     reciprocal axes: (cart. coord. in units 2 pi/alat)
               b(1) = (  1.000000  0.000000  0.000000 )  
               b(2) = (  0.000000  1.000000  0.000000 )  
               b(3) = (  0.000000  0.000000  1.000000 )  


     PseudoPot. # 1 for C  read from file:
     /home/ciga/builds/pseudo_potentials/C.upf
     MD5 check sum: d80ec9912146af6c4c1760317d1f95e9
     Pseudo is Norm-conserving + core correction, Zval =  4.0
     Generated using ONCVPSP code by D. R. Hamann
     Using radial grid of 1248 points,  4 beta functions with: 
                l(1) =   0
                l(2) =   0
                l(3) =   1
                l(4) =   1

     PseudoPot. # 2 for H  read from file:
     /home/ciga/builds/pseudo_potentials/H.upf
     MD5 check sum: 418cee52d0c413ae40802e6cc37ab9e3
     Pseudo is Norm-conserving, Zval =  1.0
     Generated using ONCVPSP code by D. R. Hamann
     Using radial grid of 1166 points,  3 beta functions with: 
                l(1) =   0
                l(2) =   0
                l(3) =   1

     atomic species   valence    mass     pseudopotential
        C              4.00    12.01070     C ( 1.00)
        H              1.00     1.00794     H ( 1.00)

     No symmetry found



   Cartesian axes

     site n.     atom                  positions (alat units)
         1           C   tau(   1) = (  -0.1031413  -0.0826661   0.0000000  )
         2           C   tau(   2) = (   0.0200216  -0.1306557   0.0000000  )
         3           C   tau(   3) = (   0.1231535  -0.0479896   0.0000000  )
         4           C   tau(   4) = (   0.1031413   0.0826661   0.0000000  )
         5           C   tau(   5) = (  -0.0200216   0.1306462   0.0000000  )
         6           C   tau(   6) = (  -0.1231629   0.0479801   0.0000000  )
         7           H   tau(   7) = (  -0.1849757  -0.1482624   0.0000000  )
         8           H   tau(   8) = (   0.0359130  -0.2343245   0.0000000  )
         9           H   tau(   9) = (   0.1849757   0.1482624   0.0000000  )
        10           H   tau(  10) = (  -0.0359116   0.2343153   0.0000000  )
        11           H   tau(  11) = (  -0.2208834   0.0860653   0.0000000  )
        12           C   tau(  12) = (   0.2573317  -0.1002521   0.0000000  )
        13           H   tau(  13) = (   0.3209874  -0.0331470   0.0494434  )
        14           H   tau(  14) = (   0.2588326  -0.1927318   0.0494471  )
        15           H   tau(  15) = (   0.2899067  -0.1129400  -0.0988821  )

     number of k points=     1
                       cart. coord. in units 2pi/alat
        k(    1) = (   0.0000000   0.0000000   0.0000000), wk =   2.0000000

     Dense  grid:   191162 G-vectors     FFT dimensions: (  96,  96,  96)

     Estimated max dynamical RAM per process >      54.14 MB

     Estimated total dynamical RAM >     216.56 MB

     Initial potential from superposition of free atoms

     starting charge   35.99961, renormalised to   36.00000

     negative rho (up, down):  7.826E-04 0.000E+00
     Starting wfcs are   36 randomized atomic wfcs

     total cpu time spent up to now is        1.1 secs

     Self-consistent Calculation

     iteration #  1     ecut=    50.00 Ry     beta= 0.50
     Davidson diagonalization with overlap
     ethr =  1.00E-02,  avg # of iterations =  2.0

     negative rho (up, down):  3.410E-04 0.000E+00

     total cpu time spent up to now is        2.2 secs

     total energy              =     -93.40113139 Ry
     estimated scf accuracy    <       1.63399000 Ry

     iteration #  2     ecut=    50.00 Ry     beta= 0.50
     Davidson diagonalization with overlap
     ethr =  4.54E-03,  avg # of iterations =  2.0

     negative rho (up, down):  1.406E-04 0.000E+00

     total cpu time spent up to now is        3.3 secs

     total energy              =     -93.63638225 Ry
     estimated scf accuracy    <       0.12232834 Ry

     iteration #  3     ecut=    50.00 Ry     beta= 0.50
     Davidson diagonalization with overlap
     ethr =  3.40E-04,  avg # of iterations =  2.0

     negative rho (up, down):  9.887E-06 0.000E+00

     total cpu time spent up to now is        4.2 secs

     total energy              =     -93.63565638 Ry
     estimated scf accuracy    <       0.02239332 Ry

     iteration #  4     ecut=    50.00 Ry     beta= 0.50
     Davidson diagonalization with overlap
     ethr =  6.22E-05,  avg # of iterations =  2.0

     negative rho (up, down):  6.783E-07 0.000E+00

     total cpu time spent up to now is        5.2 secs

     total energy              =     -93.63839100 Ry
     estimated scf accuracy    <       0.00143171 Ry

     iteration #  5     ecut=    50.00 Ry     beta= 0.50
     Davidson diagonalization with overlap
     ethr =  3.98E-06,  avg # of iterations =  2.0

     negative rho (up, down):  1.407E-07 0.000E+00

     total cpu time spent up to now is        6.4 secs

     total energy              =     -93.63889140 Ry
     estimated scf accuracy    <       0.00039687 Ry

     iteration #  6     ecut=    50.00 Ry     beta= 0.50
     Davidson diagonalization with overlap
     ethr =  1.10E-06,  avg # of iterations =  2.0

     total cpu time spent up to now is        7.4 secs

     total energy              =     -93.63895318 Ry
     estimated scf accuracy    <       0.00001561 Ry

     iteration #  7     ecut=    50.00 Ry     beta= 0.50
     Davidson diagonalization with overlap
     ethr =  4.34E-08,  avg # of iterations =  5.0

     total cpu time spent up to now is        8.8 secs

     total energy              =     -93.63895920 Ry
     estimated scf accuracy    <       0.00001590 Ry

     iteration #  8     ecut=    50.00 Ry     beta= 0.50
     Davidson diagonalization with overlap
     ethr =  4.34E-08,  avg # of iterations =  2.0

     total cpu time spent up to now is        9.9 secs

     total energy              =     -93.63896287 Ry
     estimated scf accuracy    <       0.00000046 Ry

     iteration #  9     ecut=    50.00 Ry     beta= 0.50
     Davidson diagonalization with overlap
     ethr =  1.27E-09,  avg # of iterations =  6.0

     total cpu time spent up to now is       11.3 secs

     total energy              =     -93.63896302 Ry
     estimated scf accuracy    <       0.00000051 Ry

     iteration # 10     ecut=    50.00 Ry     beta= 0.50
     Davidson diagonalization with overlap
     ethr =  1.27E-09,  avg # of iterations =  4.0

     total cpu time spent up to now is       12.4 secs

     total energy              =     -93.63896312 Ry
     estimated scf accuracy    <          7.1E-09 Ry

     iteration # 11     ecut=    50.00 Ry     beta= 0.50
     Davidson diagonalization with overlap
     ethr =  1.97E-11,  avg # of iterations =  5.0

     total cpu time spent up to now is       13.7 secs

     total energy              =     -93.63896312 Ry
     estimated scf accuracy    <          1.7E-09 Ry

     iteration # 12     ecut=    50.00 Ry     beta= 0.50
     Davidson diagonalization with overlap
     ethr =  4.73E-12,  avg # of iterations =  3.0

     total cpu time spent up to now is       15.0 secs

     total energy              =     -93.63896312 Ry
     estimated scf accuracy    <          2.5E-09 Ry

     iteration # 13     ecut=    50.00 Ry     beta= 0.50
     Davidson diagonalization with overlap
     ethr =  4.73E-12,  avg # of iterations =  4.0

     total cpu time spent up to now is       16.1 secs

     total energy              =     -93.63896312 Ry
     estimated scf accuracy    <          9.5E-11 Ry

     iteration # 14     ecut=    50.00 Ry     beta= 0.50
     Davidson diagonalization with overlap
     ethr =  2.65E-13,  avg # of iterations =  3.0

     total cpu time spent up to now is       17.4 secs

     total energy              =     -93.63896312 Ry
     estimated scf accuracy    <          1.2E-11 Ry

     iteration # 15     ecut=    50.00 Ry     beta= 0.50
     Davidson diagonalization with overlap
     ethr =  1.00E-13,  avg # of iterations =  1.0

     total cpu time spent up to now is       18.3 secs

     total energy              =     -93.63896312 Ry
     estimated scf accuracy    <          6.4E-12 Ry

     iteration # 16     ecut=    50.00 Ry     beta= 0.50
     Davidson diagonalization with overlap
     ethr =  1.00E-13,  avg # of iterations =  2.0

     total cpu time spent up to now is       19.1 secs

     End of self-consistent calculation

          k = 0.0000 0.0000 0.0000 ( 23917 PWs)   bands (ev):

   -20.6148 -18.3886 -17.7124 -16.1321 -14.1730 -13.5801 -11.7618 -10.5573
   -10.2235  -9.6239  -9.4715  -9.0794  -8.5781  -8.0490  -7.4295  -7.3798
    -5.6124  -5.3567

     highest occupied level (ev):    -5.3567

!    total energy              =     -93.63896312 Ry
     estimated scf accuracy    <          5.1E-13 Ry

     The total energy is the sum of the following terms:
     one-electron contribution =    -328.32572892 Ry
     hartree contribution      =     169.08863168 Ry
     xc contribution           =     -35.41880051 Ry
     ewald contribution        =     101.01693462 Ry

     convergence has been achieved in  16 iterations

     Forces acting on atoms (cartesian axes, Ry/au):

     atom    1 type  1   force =    -0.01937708   -0.01649792   -0.00096871
     atom    2 type  1   force =    -0.00855657   -0.01745059   -0.00054071
     atom    3 type  1   force =     0.03593697   -0.01392792    0.00241404
     atom    4 type  1   force =     0.00545299    0.01882129   -0.00054579
     atom    5 type  1   force =    -0.00334421    0.02493400   -0.00096125
     atom    6 type  1   force =    -0.02645673    0.01056550   -0.00020515
     atom    7 type  2   force =     0.01860936    0.01521386    0.00022508
     atom    8 type  2   force =    -0.00250924    0.02322109    0.00067539
     atom    9 type  2   force =    -0.01763188   -0.01550184    0.00067390
     atom   10 type  2   force =     0.00343396   -0.02377366    0.00022374
     atom   11 type  2   force =     0.02287566   -0.00895440    0.00030265
     atom   12 type  1   force =    -0.01406453    0.00547370    0.00427740
     atom   13 type  2   force =    -0.00376069   -0.01415529   -0.01006701
     atom   14 type  2   force =     0.00679390    0.01300636   -0.01016536
     atom   15 type  2   force =     0.00259810   -0.00097417    0.01466178

     Total force =     0.091142     Total SCF correction =     0.000001

     Writing output data file ./Tuloene.save/

     init_run     :      0.94s CPU      0.99s WALL (       1 calls)
     electrons    :     17.76s CPU     18.08s WALL (       1 calls)
     forces       :      0.61s CPU      0.62s WALL (       1 calls)

     Called by init_run:
     wfcinit      :      0.46s CPU      0.48s WALL (       1 calls)
     potinit      :      0.31s CPU      0.33s WALL (       1 calls)
     hinit0       :      0.11s CPU      0.12s WALL (       1 calls)

     Called by electrons:
     c_bands      :     11.69s CPU     11.78s WALL (      16 calls)
     sum_band     :      2.15s CPU      2.16s WALL (      16 calls)
     v_of_rho     :      3.23s CPU      3.45s WALL (      17 calls)
     mix_rho      :      0.77s CPU      0.78s WALL (      16 calls)

     Called by c_bands:
     init_us_2    :      0.15s CPU      0.16s WALL (      33 calls)
     regterg      :     11.49s CPU     11.58s WALL (      16 calls)

     Called by *egterg:
     rdiaghg      :      0.06s CPU      0.06s WALL (      63 calls)
     h_psi        :      9.94s CPU     10.03s WALL (      64 calls)
     g_psi        :      0.02s CPU      0.02s WALL (      47 calls)

     Called by h_psi:
     h_psi:calbec :      1.51s CPU      1.51s WALL (      64 calls)
     vloc_psi     :      7.20s CPU      7.28s WALL (      64 calls)
     add_vuspsi   :      1.18s CPU      1.18s WALL (      64 calls)

     General routines
     calbec       :      1.63s CPU      1.64s WALL (      68 calls)
     fft          :      2.12s CPU      2.16s WALL (     144 calls)
     ffts         :      0.24s CPU      0.24s WALL (      16 calls)
     fftw         :      6.62s CPU      6.68s WALL (    1044 calls)

     Parallel routines

     PWSCF        :     19.38s CPU     19.79s WALL


   This run was terminated on:   1:18:39  24May2021            

=------------------------------------------------------------------------------=
   JOB DONE.
=------------------------------------------------------------------------------=
