
     Program PWSCF v.6.7GPU starts on 24May2021 at  7: 2:32 

     This program is part of the open-source Quantum ESPRESSO suite
     for quantum simulation of materials; please cite
         "P. Giannozzi et al., J. Phys.:Condens. Matter 21 395502 (2009);
         "P. Giannozzi et al., J. Phys.:Condens. Matter 29 465901 (2017);
         "P. Giannozzi et al., J. Chem. Phys. 152 154105 (2020);
          URL http://www.quantum-espresso.org", 
     in publications or presentations arising from this work. More details at
     http://www.quantum-espresso.org/quote

     Parallel version (MPI), running on     4 processors

     MPI processes distributed on     1 nodes
     R & G space division:  proc/nbgrp/npool/nimage =       4
     Waiting for input...
     Reading input from standard input
     Message from routine read_cards :
     DEPRECATED: no units specified in CELL_PARAMETERS card

     Current dimensions of program PWSCF are:
     Max number of different atomic species (ntypx) = 10
     Max number of k-points (npk) =  40000
     Max angular momentum in pseudopotentials (lmaxx) =  3

     gamma-point specific algorithms are used

     Subspace diagonalization in iterative solution of the eigenvalue problem:
     one sub-group per band group will be used
     scalapack distributed-memory algorithm (size of sub-group:  2*  2 procs)


     Parallelization info
     --------------------
     sticks:   dense  smooth     PW     G-vecs:    dense   smooth      PW
     Min        1591    1591    398                95580    95580   11954
     Max        1594    1594    400                95582    95582   11960
     Sum        6369    6369   1597               382323   382323   47833

     Using Slab Decomposition



     bravais-lattice index     =            0
     lattice parameter (alat)  =      20.0000  a.u.
     unit-cell volume          =    8000.0000 (a.u.)^3
     number of atoms/cell      =            6
     number of atomic types    =            3
     number of electrons       =        18.00
     number of Kohn-Sham states=            9
     kinetic-energy cutoff     =      50.0000  Ry
     charge density cutoff     =     200.0000  Ry
     scf convergence threshold =      1.0E-12
     mixing beta               =       0.5000
     number of iterations used =            8  plain     mixing
     Exchange-correlation= PBE
                           (   1   4   3   4   0   0   0)

     celldm(1)=  20.000000  celldm(2)=   0.000000  celldm(3)=   0.000000
     celldm(4)=   0.000000  celldm(5)=   0.000000  celldm(6)=   0.000000

     crystal axes: (cart. coord. in units of alat)
               a(1) = (   1.000000   0.000000   0.000000 )  
               a(2) = (   0.000000   1.000000   0.000000 )  
               a(3) = (   0.000000   0.000000   1.000000 )  

     reciprocal axes: (cart. coord. in units 2 pi/alat)
               b(1) = (  1.000000  0.000000  0.000000 )  
               b(2) = (  0.000000  1.000000  0.000000 )  
               b(3) = (  0.000000  0.000000  1.000000 )  


     PseudoPot. # 1 for C  read from file:
     /home/ciga/builds/pseudo_potentials/C.upf
     MD5 check sum: d80ec9912146af6c4c1760317d1f95e9
     Pseudo is Norm-conserving + core correction, Zval =  4.0
     Generated using ONCVPSP code by D. R. Hamann
     Using radial grid of 1248 points,  4 beta functions with: 
                l(1) =   0
                l(2) =   0
                l(3) =   1
                l(4) =   1

     PseudoPot. # 2 for H  read from file:
     /home/ciga/builds/pseudo_potentials/H.upf
     MD5 check sum: 418cee52d0c413ae40802e6cc37ab9e3
     Pseudo is Norm-conserving, Zval =  1.0
     Generated using ONCVPSP code by D. R. Hamann
     Using radial grid of 1166 points,  3 beta functions with: 
                l(1) =   0
                l(2) =   0
                l(3) =   1

     PseudoPot. # 3 for Cl read from file:
     /home/ciga/builds/pseudo_potentials/Cl.upf
     MD5 check sum: b1ddb435c2952724bdf458cc656d2c80
     Pseudo is Norm-conserving + core correction, Zval =  7.0
     Generated using ONCVPSP code by D. R. Hamann
     Using radial grid of 1028 points,  6 beta functions with: 
                l(1) =   0
                l(2) =   0
                l(3) =   1
                l(4) =   1
                l(5) =   2
                l(6) =   2

     atomic species   valence    mass     pseudopotential
        C              4.00    12.01070     C ( 1.00)
        H              1.00     1.00794     H ( 1.00)
        Cl             7.00    35.45300     Cl( 1.00)

     No symmetry found



   Cartesian axes

     site n.     atom                  positions (alat units)
         1           C   tau(   1) = (  -0.0523705  -0.0420805   0.0104952  )
         2           C   tau(   2) = (   0.0351729   0.0413883  -0.0221608  )
         3           H   tau(   3) = (  -0.1249197  -0.0199142   0.0786069  )
         4           H   tau(   4) = (  -0.0513719  -0.1346662  -0.0321760  )
         5           H   tau(   5) = (   0.1089667   0.0228062  -0.0899078  )
         6           Cl  tau(   6) = (   0.0416146   0.1916906   0.0407987  )

     number of k points=     1
                       cart. coord. in units 2pi/alat
        k(    1) = (   0.0000000   0.0000000   0.0000000), wk =   2.0000000

     Dense  grid:   191162 G-vectors     FFT dimensions: (  96,  96,  96)

     Estimated max dynamical RAM per process >      49.95 MB

     Estimated total dynamical RAM >     199.81 MB

     Initial potential from superposition of free atoms

     starting charge   17.99988, renormalised to   18.00000

     negative rho (up, down):  7.565E-04 0.000E+00
     Starting wfcs are   15 randomized atomic wfcs

     total cpu time spent up to now is        0.9 secs

     Self-consistent Calculation

     iteration #  1     ecut=    50.00 Ry     beta= 0.50
     Davidson diagonalization with overlap
     ethr =  1.00E-02,  avg # of iterations =  2.0

     negative rho (up, down):  3.319E-04 0.000E+00

     total cpu time spent up to now is        1.5 secs

     total energy              =     -60.23947924 Ry
     estimated scf accuracy    <       0.65609884 Ry

     iteration #  2     ecut=    50.00 Ry     beta= 0.50
     Davidson diagonalization with overlap
     ethr =  3.64E-03,  avg # of iterations =  3.0

     negative rho (up, down):  1.514E-04 0.000E+00

     total cpu time spent up to now is        2.2 secs

     total energy              =     -60.36571463 Ry
     estimated scf accuracy    <       0.07654681 Ry

     iteration #  3     ecut=    50.00 Ry     beta= 0.50
     Davidson diagonalization with overlap
     ethr =  4.25E-04,  avg # of iterations =  2.0

     negative rho (up, down):  3.651E-05 0.000E+00

     total cpu time spent up to now is        2.7 secs

     total energy              =     -60.36921009 Ry
     estimated scf accuracy    <       0.01353114 Ry

     iteration #  4     ecut=    50.00 Ry     beta= 0.50
     Davidson diagonalization with overlap
     ethr =  7.52E-05,  avg # of iterations =  4.0

     negative rho (up, down):  1.023E-05 0.000E+00

     total cpu time spent up to now is        3.4 secs

     total energy              =     -60.36954436 Ry
     estimated scf accuracy    <       0.00865528 Ry

     iteration #  5     ecut=    50.00 Ry     beta= 0.50
     Davidson diagonalization with overlap
     ethr =  4.81E-05,  avg # of iterations =  5.0

     negative rho (up, down):  1.767E-06 0.000E+00

     total cpu time spent up to now is        4.1 secs

     total energy              =     -60.37236763 Ry
     estimated scf accuracy    <       0.00828284 Ry

     iteration #  6     ecut=    50.00 Ry     beta= 0.50
     Davidson diagonalization with overlap
     ethr =  4.60E-05,  avg # of iterations =  2.0

     negative rho (up, down):  1.024E-07 0.000E+00

     total cpu time spent up to now is        4.7 secs

     total energy              =     -60.37225063 Ry
     estimated scf accuracy    <       0.00151853 Ry

     iteration #  7     ecut=    50.00 Ry     beta= 0.50
     Davidson diagonalization with overlap
     ethr =  8.44E-06,  avg # of iterations =  5.0

     negative rho (up, down):  6.489E-08 0.000E+00

     total cpu time spent up to now is        5.4 secs

     total energy              =     -60.37307479 Ry
     estimated scf accuracy    <       0.00066106 Ry

     iteration #  8     ecut=    50.00 Ry     beta= 0.50
     Davidson diagonalization with overlap
     ethr =  3.67E-06,  avg # of iterations =  2.0

     total cpu time spent up to now is        6.0 secs

     total energy              =     -60.37303365 Ry
     estimated scf accuracy    <       0.00018594 Ry

     iteration #  9     ecut=    50.00 Ry     beta= 0.50
     Davidson diagonalization with overlap
     ethr =  1.03E-06,  avg # of iterations =  5.0

     total cpu time spent up to now is        6.7 secs

     total energy              =     -60.37309460 Ry
     estimated scf accuracy    <       0.00001654 Ry

     iteration # 10     ecut=    50.00 Ry     beta= 0.50
     Davidson diagonalization with overlap
     ethr =  9.19E-08,  avg # of iterations =  2.0

     total cpu time spent up to now is        7.3 secs

     total energy              =     -60.37309490 Ry
     estimated scf accuracy    <       0.00000352 Ry

     iteration # 11     ecut=    50.00 Ry     beta= 0.50
     Davidson diagonalization with overlap
     ethr =  1.95E-08,  avg # of iterations =  5.0

     total cpu time spent up to now is        8.0 secs

     total energy              =     -60.37309615 Ry
     estimated scf accuracy    <       0.00000023 Ry

     iteration # 12     ecut=    50.00 Ry     beta= 0.50
     Davidson diagonalization with overlap
     ethr =  1.27E-09,  avg # of iterations =  3.0

     total cpu time spent up to now is        8.6 secs

     total energy              =     -60.37309617 Ry
     estimated scf accuracy    <       0.00000002 Ry

     iteration # 13     ecut=    50.00 Ry     beta= 0.50
     Davidson diagonalization with overlap
     ethr =  9.87E-11,  avg # of iterations =  6.0

     total cpu time spent up to now is        9.4 secs

     total energy              =     -60.37309618 Ry
     estimated scf accuracy    <       0.00000006 Ry

     iteration # 14     ecut=    50.00 Ry     beta= 0.50
     Davidson diagonalization with overlap
     ethr =  9.87E-11,  avg # of iterations =  4.0

     total cpu time spent up to now is       10.1 secs

     total energy              =     -60.37309618 Ry
     estimated scf accuracy    <          3.6E-09 Ry

     iteration # 15     ecut=    50.00 Ry     beta= 0.50
     Davidson diagonalization with overlap
     ethr =  1.99E-11,  avg # of iterations =  6.0

     total cpu time spent up to now is       10.9 secs

     total energy              =     -60.37309619 Ry
     estimated scf accuracy    <          5.2E-09 Ry

     iteration # 16     ecut=    50.00 Ry     beta= 0.50
     Davidson diagonalization with overlap
     ethr =  1.99E-11,  avg # of iterations =  3.0

     total cpu time spent up to now is       11.5 secs

     total energy              =     -60.37309619 Ry
     estimated scf accuracy    <          2.6E-10 Ry

     iteration # 17     ecut=    50.00 Ry     beta= 0.50
     Davidson diagonalization with overlap
     ethr =  1.44E-12,  avg # of iterations =  6.0

     total cpu time spent up to now is       12.3 secs

     total energy              =     -60.37309619 Ry
     estimated scf accuracy    <          3.2E-10 Ry

     iteration # 18     ecut=    50.00 Ry     beta= 0.50
     Davidson diagonalization with overlap
     ethr =  1.44E-12,  avg # of iterations =  2.0

     total cpu time spent up to now is       12.9 secs

     total energy              =     -60.37309619 Ry
     estimated scf accuracy    <          8.1E-11 Ry

     iteration # 19     ecut=    50.00 Ry     beta= 0.50
     Davidson diagonalization with overlap
     ethr =  4.49E-13,  avg # of iterations =  5.0

     total cpu time spent up to now is       13.6 secs

     total energy              =     -60.37309619 Ry
     estimated scf accuracy    <          4.3E-12 Ry

     iteration # 20     ecut=    50.00 Ry     beta= 0.50
     Davidson diagonalization with overlap
     ethr =  1.00E-13,  avg # of iterations =  1.0

     total cpu time spent up to now is       14.1 secs

     End of self-consistent calculation

          k = 0.0000 0.0000 0.0000 ( 23917 PWs)   bands (ev):

   -21.6324 -18.3012 -14.1211 -11.7424 -10.7097  -9.0672  -8.6831  -7.1513
    -6.0436

     highest occupied level (ev):    -6.0436

!    total energy              =     -60.37309619 Ry
     estimated scf accuracy    <          1.0E-12 Ry

     The total energy is the sum of the following terms:
     one-electron contribution =    -131.72426286 Ry
     hartree contribution      =      67.86084143 Ry
     xc contribution           =     -19.51993666 Ry
     ewald contribution        =      23.01026190 Ry

     convergence has been achieved in  20 iterations

     Forces acting on atoms (cartesian axes, Ry/au):

     atom    1 type  1   force =    -0.00324225   -0.00284979    0.00124948
     atom    2 type  1   force =     0.00012898    0.00559780    0.00229645
     atom    3 type  2   force =    -0.00882422    0.00057280    0.00760022
     atom    4 type  2   force =    -0.00085438   -0.01175068   -0.00465760
     atom    5 type  2   force =     0.01013935   -0.00081536   -0.00846332
     atom    6 type  3   force =     0.00265253    0.00924523    0.00197477

     Total force =     0.024996     Total SCF correction =     0.000002

     Writing output data file ./Vynil_chloride.save/

     init_run     :      0.72s CPU      0.77s WALL (       1 calls)
     electrons    :     12.84s CPU     13.24s WALL (       1 calls)
     forces       :      0.46s CPU      0.49s WALL (       1 calls)

     Called by init_run:
     wfcinit      :      0.16s CPU      0.17s WALL (       1 calls)
     potinit      :      0.34s CPU      0.36s WALL (       1 calls)
     hinit0       :      0.16s CPU      0.17s WALL (       1 calls)

     Called by electrons:
     c_bands      :      6.28s CPU      6.33s WALL (      20 calls)
     sum_band     :      1.82s CPU      1.83s WALL (      20 calls)
     v_of_rho     :      3.75s CPU      4.09s WALL (      21 calls)
     mix_rho      :      1.03s CPU      1.04s WALL (      20 calls)

     Called by c_bands:
     init_us_2    :      0.13s CPU      0.14s WALL (      41 calls)
     regterg      :      6.09s CPU      6.13s WALL (      20 calls)

     Called by *egterg:
     rdiaghg      :      0.05s CPU      0.05s WALL (      93 calls)
     h_psi        :      5.58s CPU      5.63s WALL (      94 calls)
     g_psi        :      0.01s CPU      0.01s WALL (      73 calls)

     Called by h_psi:
     h_psi:calbec :      0.47s CPU      0.48s WALL (      94 calls)
     vloc_psi     :      4.72s CPU      4.76s WALL (      94 calls)
     add_vuspsi   :      0.37s CPU      0.37s WALL (      94 calls)

     General routines
     calbec       :      0.50s CPU      0.51s WALL (      98 calls)
     fft          :      2.58s CPU      2.66s WALL (     176 calls)
     ffts         :      0.29s CPU      0.29s WALL (      20 calls)
     fftw         :      4.35s CPU      4.37s WALL (     702 calls)

     Parallel routines

     PWSCF        :     14.13s CPU     14.62s WALL


   This run was terminated on:   7: 2:46  24May2021            

=------------------------------------------------------------------------------=
   JOB DONE.
=------------------------------------------------------------------------------=
