
     Program PWSCF v.6.7GPU starts on 24May2021 at  7: 4:41 

     This program is part of the open-source Quantum ESPRESSO suite
     for quantum simulation of materials; please cite
         "P. Giannozzi et al., J. Phys.:Condens. Matter 21 395502 (2009);
         "P. Giannozzi et al., J. Phys.:Condens. Matter 29 465901 (2017);
         "P. Giannozzi et al., J. Chem. Phys. 152 154105 (2020);
          URL http://www.quantum-espresso.org", 
     in publications or presentations arising from this work. More details at
     http://www.quantum-espresso.org/quote

     Parallel version (MPI), running on     4 processors

     MPI processes distributed on     1 nodes
     R & G space division:  proc/nbgrp/npool/nimage =       4
     Waiting for input...
     Reading input from standard input
     Message from routine read_cards :
     DEPRECATED: no units specified in CELL_PARAMETERS card

     Current dimensions of program PWSCF are:
     Max number of different atomic species (ntypx) = 10
     Max number of k-points (npk) =  40000
     Max angular momentum in pseudopotentials (lmaxx) =  3

     gamma-point specific algorithms are used

     Subspace diagonalization in iterative solution of the eigenvalue problem:
     one sub-group per band group will be used
     scalapack distributed-memory algorithm (size of sub-group:  2*  2 procs)


     Parallelization info
     --------------------
     sticks:   dense  smooth     PW     G-vecs:    dense   smooth      PW
     Min        2543    2543    637               193371   193371   24241
     Max        2548    2548    642               193374   193374   24244
     Sum       10185   10185   2561               773489   773489   96969

     Using Slab Decomposition



     bravais-lattice index     =            0
     lattice parameter (alat)  =      20.0000  a.u.
     unit-cell volume          =    8000.0000 (a.u.)^3
     number of atoms/cell      =            6
     number of atomic types    =            3
     number of electrons       =        18.00
     number of Kohn-Sham states=            9
     kinetic-energy cutoff     =      80.0000  Ry
     charge density cutoff     =     320.0000  Ry
     scf convergence threshold =      1.0E-12
     mixing beta               =       0.5000
     number of iterations used =            8  plain     mixing
     Exchange-correlation= PBE
                           (   1   4   3   4   0   0   0)

     celldm(1)=  20.000000  celldm(2)=   0.000000  celldm(3)=   0.000000
     celldm(4)=   0.000000  celldm(5)=   0.000000  celldm(6)=   0.000000

     crystal axes: (cart. coord. in units of alat)
               a(1) = (   1.000000   0.000000   0.000000 )  
               a(2) = (   0.000000   1.000000   0.000000 )  
               a(3) = (   0.000000   0.000000   1.000000 )  

     reciprocal axes: (cart. coord. in units 2 pi/alat)
               b(1) = (  1.000000  0.000000  0.000000 )  
               b(2) = (  0.000000  1.000000  0.000000 )  
               b(3) = (  0.000000  0.000000  1.000000 )  


     PseudoPot. # 1 for C  read from file:
     /home/ciga/builds/pseudo_potentials/C.upf
     MD5 check sum: d80ec9912146af6c4c1760317d1f95e9
     Pseudo is Norm-conserving + core correction, Zval =  4.0
     Generated using ONCVPSP code by D. R. Hamann
     Using radial grid of 1248 points,  4 beta functions with: 
                l(1) =   0
                l(2) =   0
                l(3) =   1
                l(4) =   1

     PseudoPot. # 2 for H  read from file:
     /home/ciga/builds/pseudo_potentials/H.upf
     MD5 check sum: 418cee52d0c413ae40802e6cc37ab9e3
     Pseudo is Norm-conserving, Zval =  1.0
     Generated using ONCVPSP code by D. R. Hamann
     Using radial grid of 1166 points,  3 beta functions with: 
                l(1) =   0
                l(2) =   0
                l(3) =   1

     PseudoPot. # 3 for Cl read from file:
     /home/ciga/builds/pseudo_potentials/Cl.upf
     MD5 check sum: b1ddb435c2952724bdf458cc656d2c80
     Pseudo is Norm-conserving + core correction, Zval =  7.0
     Generated using ONCVPSP code by D. R. Hamann
     Using radial grid of 1028 points,  6 beta functions with: 
                l(1) =   0
                l(2) =   0
                l(3) =   1
                l(4) =   1
                l(5) =   2
                l(6) =   2

     atomic species   valence    mass     pseudopotential
        C              4.00    12.01070     C ( 1.00)
        H              1.00     1.00794     H ( 1.00)
        Cl             7.00    35.45300     Cl( 1.00)

     No symmetry found



   Cartesian axes

     site n.     atom                  positions (alat units)
         1           C   tau(   1) = (  -0.0523705  -0.0420805   0.0104952  )
         2           C   tau(   2) = (   0.0351729   0.0413883  -0.0221608  )
         3           H   tau(   3) = (  -0.1249197  -0.0199142   0.0786069  )
         4           H   tau(   4) = (  -0.0513719  -0.1346662  -0.0321760  )
         5           H   tau(   5) = (   0.1089667   0.0228062  -0.0899078  )
         6           Cl  tau(   6) = (   0.0416146   0.1916906   0.0407987  )

     number of k points=     1
                       cart. coord. in units 2pi/alat
        k(    1) = (   0.0000000   0.0000000   0.0000000), wk =   2.0000000

     Dense  grid:   386745 G-vectors     FFT dimensions: ( 120, 120, 120)

     Estimated max dynamical RAM per process >      97.41 MB

     Estimated total dynamical RAM >     389.64 MB

     Initial potential from superposition of free atoms

     starting charge   17.99988, renormalised to   18.00000

     negative rho (up, down):  7.012E-05 0.000E+00
     Starting wfcs are   15 randomized atomic wfcs

     total cpu time spent up to now is        1.6 secs

     Self-consistent Calculation

     iteration #  1     ecut=    80.00 Ry     beta= 0.50
     Davidson diagonalization with overlap
     ethr =  1.00E-02,  avg # of iterations =  2.0

     negative rho (up, down):  1.566E-05 0.000E+00

     total cpu time spent up to now is        2.9 secs

     total energy              =     -60.26281166 Ry
     estimated scf accuracy    <       0.67206416 Ry

     iteration #  2     ecut=    80.00 Ry     beta= 0.50
     Davidson diagonalization with overlap
     ethr =  3.73E-03,  avg # of iterations =  3.0

     negative rho (up, down):  4.349E-06 0.000E+00

     total cpu time spent up to now is        4.2 secs

     total energy              =     -60.39464877 Ry
     estimated scf accuracy    <       0.07675573 Ry

     iteration #  3     ecut=    80.00 Ry     beta= 0.50
     Davidson diagonalization with overlap
     ethr =  4.26E-04,  avg # of iterations =  2.0

     negative rho (up, down):  8.704E-07 0.000E+00

     total cpu time spent up to now is        5.4 secs

     total energy              =     -60.39845817 Ry
     estimated scf accuracy    <       0.01397740 Ry

     iteration #  4     ecut=    80.00 Ry     beta= 0.50
     Davidson diagonalization with overlap
     ethr =  7.77E-05,  avg # of iterations =  4.0

     negative rho (up, down):  1.441E-07 0.000E+00

     total cpu time spent up to now is        6.9 secs

     total energy              =     -60.39889232 Ry
     estimated scf accuracy    <       0.00824246 Ry

     iteration #  5     ecut=    80.00 Ry     beta= 0.50
     Davidson diagonalization with overlap
     ethr =  4.58E-05,  avg # of iterations =  6.0

     negative rho (up, down):  2.831E-08 0.000E+00

     total cpu time spent up to now is        8.4 secs

     total energy              =     -60.40091985 Ry
     estimated scf accuracy    <       0.01015893 Ry

     iteration #  6     ecut=    80.00 Ry     beta= 0.50
     Davidson diagonalization with overlap
     ethr =  4.58E-05,  avg # of iterations =  3.0

     total cpu time spent up to now is        9.7 secs

     total energy              =     -60.40183875 Ry
     estimated scf accuracy    <       0.00074050 Ry

     iteration #  7     ecut=    80.00 Ry     beta= 0.50
     Davidson diagonalization with overlap
     ethr =  4.11E-06,  avg # of iterations =  5.0

     total cpu time spent up to now is       11.2 secs

     total energy              =     -60.40226105 Ry
     estimated scf accuracy    <       0.00020054 Ry

     iteration #  8     ecut=    80.00 Ry     beta= 0.50
     Davidson diagonalization with overlap
     ethr =  1.11E-06,  avg # of iterations =  2.0

     total cpu time spent up to now is       12.4 secs

     total energy              =     -60.40223951 Ry
     estimated scf accuracy    <       0.00005987 Ry

     iteration #  9     ecut=    80.00 Ry     beta= 0.50
     Davidson diagonalization with overlap
     ethr =  3.33E-07,  avg # of iterations =  4.0

     total cpu time spent up to now is       13.9 secs

     total energy              =     -60.40226406 Ry
     estimated scf accuracy    <       0.00001457 Ry

     iteration # 10     ecut=    80.00 Ry     beta= 0.50
     Davidson diagonalization with overlap
     ethr =  8.10E-08,  avg # of iterations =  1.0

     total cpu time spent up to now is       15.0 secs

     total energy              =     -60.40226163 Ry
     estimated scf accuracy    <       0.00000523 Ry

     iteration # 11     ecut=    80.00 Ry     beta= 0.50
     Davidson diagonalization with overlap
     ethr =  2.91E-08,  avg # of iterations =  4.0

     total cpu time spent up to now is       16.5 secs

     total energy              =     -60.40226397 Ry
     estimated scf accuracy    <       0.00000204 Ry

     iteration # 12     ecut=    80.00 Ry     beta= 0.50
     Davidson diagonalization with overlap
     ethr =  1.13E-08,  avg # of iterations =  1.0

     total cpu time spent up to now is       17.7 secs

     total energy              =     -60.40226379 Ry
     estimated scf accuracy    <       0.00000066 Ry

     iteration # 13     ecut=    80.00 Ry     beta= 0.50
     Davidson diagonalization with overlap
     ethr =  3.69E-09,  avg # of iterations =  5.0

     total cpu time spent up to now is       19.2 secs

     total energy              =     -60.40226403 Ry
     estimated scf accuracy    <       0.00000004 Ry

     iteration # 14     ecut=    80.00 Ry     beta= 0.50
     Davidson diagonalization with overlap
     ethr =  2.25E-10,  avg # of iterations =  2.0

     total cpu time spent up to now is       20.5 secs

     total energy              =     -60.40226401 Ry
     estimated scf accuracy    <       0.00000007 Ry

     iteration # 15     ecut=    80.00 Ry     beta= 0.50
     Davidson diagonalization with overlap
     ethr =  2.25E-10,  avg # of iterations =  2.0

     total cpu time spent up to now is       21.7 secs

     total energy              =     -60.40226400 Ry
     estimated scf accuracy    <       0.00000003 Ry

     iteration # 16     ecut=    80.00 Ry     beta= 0.50
     Davidson diagonalization with overlap
     ethr =  1.49E-10,  avg # of iterations =  4.0

     total cpu time spent up to now is       23.1 secs

     total energy              =     -60.40226401 Ry
     estimated scf accuracy    <          2.7E-09 Ry

     iteration # 17     ecut=    80.00 Ry     beta= 0.50
     Davidson diagonalization with overlap
     ethr =  1.49E-11,  avg # of iterations =  2.0

     total cpu time spent up to now is       24.4 secs

     total energy              =     -60.40226401 Ry
     estimated scf accuracy    <          1.9E-09 Ry

     iteration # 18     ecut=    80.00 Ry     beta= 0.50
     Davidson diagonalization with overlap
     ethr =  1.06E-11,  avg # of iterations =  2.0

     total cpu time spent up to now is       25.6 secs

     total energy              =     -60.40226401 Ry
     estimated scf accuracy    <          4.6E-10 Ry

     iteration # 19     ecut=    80.00 Ry     beta= 0.50
     Davidson diagonalization with overlap
     ethr =  2.56E-12,  avg # of iterations =  5.0

     total cpu time spent up to now is       27.1 secs

     total energy              =     -60.40226401 Ry
     estimated scf accuracy    <          2.5E-11 Ry

     iteration # 20     ecut=    80.00 Ry     beta= 0.50
     Davidson diagonalization with overlap
     ethr =  1.41E-13,  avg # of iterations =  2.0

     total cpu time spent up to now is       28.3 secs

     total energy              =     -60.40226401 Ry
     estimated scf accuracy    <          7.9E-12 Ry

     iteration # 21     ecut=    80.00 Ry     beta= 0.50
     Davidson diagonalization with overlap
     ethr =  1.00E-13,  avg # of iterations =  5.0

     total cpu time spent up to now is       29.8 secs

     total energy              =     -60.40226401 Ry
     estimated scf accuracy    <          1.2E-11 Ry

     iteration # 22     ecut=    80.00 Ry     beta= 0.50
     Davidson diagonalization with overlap
     ethr =  1.00E-13,  avg # of iterations =  2.0

     total cpu time spent up to now is       31.0 secs

     total energy              =     -60.40226401 Ry
     estimated scf accuracy    <          3.9E-12 Ry

     iteration # 23     ecut=    80.00 Ry     beta= 0.50
     Davidson diagonalization with overlap
     ethr =  1.00E-13,  avg # of iterations =  2.0

     total cpu time spent up to now is       32.1 secs

     End of self-consistent calculation

          k = 0.0000 0.0000 0.0000 ( 48485 PWs)   bands (ev):

   -21.6199 -18.2751 -14.1058 -11.7422 -10.7123  -9.0703  -8.6832  -7.1520
    -6.0469

     highest occupied level (ev):    -6.0469

!    total energy              =     -60.40226401 Ry
     estimated scf accuracy    <          2.7E-13 Ry

     The total energy is the sum of the following terms:
     one-electron contribution =    -131.77422922 Ry
     hartree contribution      =      67.89299720 Ry
     xc contribution           =     -19.53129386 Ry
     ewald contribution        =      23.01026187 Ry

     convergence has been achieved in  23 iterations

     Forces acting on atoms (cartesian axes, Ry/au):

     atom    1 type  1   force =     0.00175376    0.00175939   -0.00099029
     atom    2 type  1   force =    -0.00472880    0.00138084    0.00460587
     atom    3 type  2   force =    -0.00856372    0.00046380    0.00732676
     atom    4 type  2   force =    -0.00092536   -0.01132586   -0.00440032
     atom    5 type  2   force =     0.00985424   -0.00080751   -0.00823081
     atom    6 type  3   force =     0.00260989    0.00852934    0.00168879

     Total force =     0.024006     Total SCF correction =     0.000001

     Writing output data file ./Vynil_chloride.save/

     init_run     :      1.37s CPU      1.45s WALL (       1 calls)
     electrons    :     29.90s CPU     30.57s WALL (       1 calls)
     forces       :      0.85s CPU      0.89s WALL (       1 calls)

     Called by init_run:
     wfcinit      :      0.36s CPU      0.37s WALL (       1 calls)
     potinit      :      0.58s CPU      0.63s WALL (       1 calls)
     hinit0       :      0.26s CPU      0.27s WALL (       1 calls)

     Called by electrons:
     c_bands      :     14.42s CPU     14.53s WALL (      23 calls)
     sum_band     :      4.32s CPU      4.35s WALL (      23 calls)
     v_of_rho     :      8.48s CPU      9.02s WALL (      24 calls)
     mix_rho      :      2.77s CPU      2.79s WALL (      23 calls)

     Called by c_bands:
     init_us_2    :      0.32s CPU      0.32s WALL (      47 calls)
     regterg      :     13.98s CPU     14.09s WALL (      23 calls)

     Called by *egterg:
     rdiaghg      :      0.05s CPU      0.05s WALL (      93 calls)
     h_psi        :     12.77s CPU     12.88s WALL (      94 calls)
     g_psi        :      0.03s CPU      0.03s WALL (      70 calls)

     Called by h_psi:
     h_psi:calbec :      0.96s CPU      0.96s WALL (      94 calls)
     vloc_psi     :     10.96s CPU     11.05s WALL (      94 calls)
     add_vuspsi   :      0.79s CPU      0.79s WALL (      94 calls)

     General routines
     calbec       :      1.01s CPU      1.02s WALL (      98 calls)
     fft          :      5.93s CPU      6.05s WALL (     200 calls)
     ffts         :      0.66s CPU      0.67s WALL (      23 calls)
     fftw         :     10.43s CPU     10.50s WALL (     749 calls)

     Parallel routines

     PWSCF        :     32.25s CPU     33.08s WALL


   This run was terminated on:   7: 5:14  24May2021            

=------------------------------------------------------------------------------=
   JOB DONE.
=------------------------------------------------------------------------------=
