
     Program PWSCF v.6.7GPU starts on 24May2021 at  4:39:29 

     This program is part of the open-source Quantum ESPRESSO suite
     for quantum simulation of materials; please cite
         "P. Giannozzi et al., J. Phys.:Condens. Matter 21 395502 (2009);
         "P. Giannozzi et al., J. Phys.:Condens. Matter 29 465901 (2017);
         "P. Giannozzi et al., J. Chem. Phys. 152 154105 (2020);
          URL http://www.quantum-espresso.org", 
     in publications or presentations arising from this work. More details at
     http://www.quantum-espresso.org/quote

     Parallel version (MPI), running on     4 processors

     MPI processes distributed on     1 nodes
     R & G space division:  proc/nbgrp/npool/nimage =       4
     Waiting for input...
     Reading input from standard input
     Message from routine read_cards :
     DEPRECATED: no units specified in CELL_PARAMETERS card

     Current dimensions of program PWSCF are:
     Max number of different atomic species (ntypx) = 10
     Max number of k-points (npk) =  40000
     Max angular momentum in pseudopotentials (lmaxx) =  3

     gamma-point specific algorithms are used

     Subspace diagonalization in iterative solution of the eigenvalue problem:
     one sub-group per band group will be used
     scalapack distributed-memory algorithm (size of sub-group:  2*  2 procs)


     Parallelization info
     --------------------
     sticks:   dense  smooth     PW     G-vecs:    dense   smooth      PW
     Min        1591    1591    398                95580    95580   11954
     Max        1594    1594    400                95582    95582   11960
     Sum        6369    6369   1597               382323   382323   47833

     Using Slab Decomposition



     bravais-lattice index     =            0
     lattice parameter (alat)  =      20.0000  a.u.
     unit-cell volume          =    8000.0000 (a.u.)^3
     number of atoms/cell      =            6
     number of atomic types    =            3
     number of electrons       =        18.00
     number of Kohn-Sham states=            9
     kinetic-energy cutoff     =      50.0000  Ry
     charge density cutoff     =     200.0000  Ry
     scf convergence threshold =      1.0E-12
     mixing beta               =       0.5000
     number of iterations used =            8  plain     mixing
     Exchange-correlation= PBE
                           (   1   4   3   4   0   0   0)

     celldm(1)=  20.000000  celldm(2)=   0.000000  celldm(3)=   0.000000
     celldm(4)=   0.000000  celldm(5)=   0.000000  celldm(6)=   0.000000

     crystal axes: (cart. coord. in units of alat)
               a(1) = (   1.000000   0.000000   0.000000 )  
               a(2) = (   0.000000   1.000000   0.000000 )  
               a(3) = (   0.000000   0.000000   1.000000 )  

     reciprocal axes: (cart. coord. in units 2 pi/alat)
               b(1) = (  1.000000  0.000000  0.000000 )  
               b(2) = (  0.000000  1.000000  0.000000 )  
               b(3) = (  0.000000  0.000000  1.000000 )  


     PseudoPot. # 1 for Br read from file:
     /home/ciga/builds/pseudo_potentials/Br.upf
     MD5 check sum: 41f672ce76ec6f6480a05aabe46aac99
     Pseudo is Norm-conserving + core correction, Zval =  7.0
     Generated using ONCVPSP code by D. R. Hamann
     Using radial grid of 1110 points,  6 beta functions with: 
                l(1) =   0
                l(2) =   0
                l(3) =   1
                l(4) =   1
                l(5) =   2
                l(6) =   2

     PseudoPot. # 2 for C  read from file:
     /home/ciga/builds/pseudo_potentials/C.upf
     MD5 check sum: d80ec9912146af6c4c1760317d1f95e9
     Pseudo is Norm-conserving + core correction, Zval =  4.0
     Generated using ONCVPSP code by D. R. Hamann
     Using radial grid of 1248 points,  4 beta functions with: 
                l(1) =   0
                l(2) =   0
                l(3) =   1
                l(4) =   1

     PseudoPot. # 3 for H  read from file:
     /home/ciga/builds/pseudo_potentials/H.upf
     MD5 check sum: 418cee52d0c413ae40802e6cc37ab9e3
     Pseudo is Norm-conserving, Zval =  1.0
     Generated using ONCVPSP code by D. R. Hamann
     Using radial grid of 1166 points,  3 beta functions with: 
                l(1) =   0
                l(2) =   0
                l(3) =   1

     atomic species   valence    mass     pseudopotential
        Br             7.00    79.90400     Br( 1.00)
        C              4.00    12.01070     C ( 1.00)
        H              1.00     1.00794     H ( 1.00)

     No symmetry found



   Cartesian axes

     site n.     atom                  positions (alat units)
         1           Br  tau(   1) = (   0.5673411   0.4251563   0.5794864  )
         2           C   tau(   2) = (   0.4177051   0.4251884   0.3580370  )
         3           C   tau(   3) = (   0.4177051   0.4251884   0.4832880  )
         4           H   tau(   4) = (   0.3285733   0.4253320   0.3078893  )
         5           H   tau(   5) = (   0.3331493   0.4251884   0.5401281  )
         6           H   tau(   6) = (   0.5035355   0.4251884   0.3031404  )

     number of k points=     1
                       cart. coord. in units 2pi/alat
        k(    1) = (   0.0000000   0.0000000   0.0000000), wk =   2.0000000

     Dense  grid:   191162 G-vectors     FFT dimensions: (  96,  96,  96)

     Estimated max dynamical RAM per process >      49.95 MB

     Estimated total dynamical RAM >     199.81 MB

     Initial potential from superposition of free atoms

     starting charge   17.99986, renormalised to   18.00000

     negative rho (up, down):  7.443E-04 0.000E+00
     Starting wfcs are   15 randomized atomic wfcs

     total cpu time spent up to now is        0.9 secs

     Self-consistent Calculation

     iteration #  1     ecut=    50.00 Ry     beta= 0.50
     Davidson diagonalization with overlap
     ethr =  1.00E-02,  avg # of iterations =  2.0

     negative rho (up, down):  3.027E-04 0.000E+00

     total cpu time spent up to now is        1.5 secs

     total energy              =     -58.86064628 Ry
     estimated scf accuracy    <       0.68969472 Ry

     iteration #  2     ecut=    50.00 Ry     beta= 0.50
     Davidson diagonalization with overlap
     ethr =  3.83E-03,  avg # of iterations =  3.0

     negative rho (up, down):  1.394E-04 0.000E+00

     total cpu time spent up to now is        2.1 secs

     total energy              =     -59.00444209 Ry
     estimated scf accuracy    <       0.07483073 Ry

     iteration #  3     ecut=    50.00 Ry     beta= 0.50
     Davidson diagonalization with overlap
     ethr =  4.16E-04,  avg # of iterations =  2.0

     negative rho (up, down):  3.276E-05 0.000E+00

     total cpu time spent up to now is        2.7 secs

     total energy              =     -59.00778986 Ry
     estimated scf accuracy    <       0.01483626 Ry

     iteration #  4     ecut=    50.00 Ry     beta= 0.50
     Davidson diagonalization with overlap
     ethr =  8.24E-05,  avg # of iterations =  4.0

     negative rho (up, down):  7.473E-06 0.000E+00

     total cpu time spent up to now is        3.4 secs

     total energy              =     -59.00817760 Ry
     estimated scf accuracy    <       0.00760952 Ry

     iteration #  5     ecut=    50.00 Ry     beta= 0.50
     Davidson diagonalization with overlap
     ethr =  4.23E-05,  avg # of iterations =  5.0

     negative rho (up, down):  1.944E-06 0.000E+00

     total cpu time spent up to now is        4.1 secs

     total energy              =     -59.01038508 Ry
     estimated scf accuracy    <       0.01007493 Ry

     iteration #  6     ecut=    50.00 Ry     beta= 0.50
     Davidson diagonalization with overlap
     ethr =  4.23E-05,  avg # of iterations =  3.0

     negative rho (up, down):  1.047E-07 0.000E+00

     total cpu time spent up to now is        4.7 secs

     total energy              =     -59.01099463 Ry
     estimated scf accuracy    <       0.00100318 Ry

     iteration #  7     ecut=    50.00 Ry     beta= 0.50
     Davidson diagonalization with overlap
     ethr =  5.57E-06,  avg # of iterations =  7.0

     negative rho (up, down):  7.284E-08 0.000E+00

     total cpu time spent up to now is        5.4 secs

     total energy              =     -59.01148232 Ry
     estimated scf accuracy    <       0.00048449 Ry

     iteration #  8     ecut=    50.00 Ry     beta= 0.50
     Davidson diagonalization with overlap
     ethr =  2.69E-06,  avg # of iterations =  3.0

     total cpu time spent up to now is        6.0 secs

     total energy              =     -59.01152397 Ry
     estimated scf accuracy    <       0.00003783 Ry

     iteration #  9     ecut=    50.00 Ry     beta= 0.50
     Davidson diagonalization with overlap
     ethr =  2.10E-07,  avg # of iterations =  6.0

     total cpu time spent up to now is        6.8 secs

     total energy              =     -59.01154522 Ry
     estimated scf accuracy    <       0.00002889 Ry

     iteration # 10     ecut=    50.00 Ry     beta= 0.50
     Davidson diagonalization with overlap
     ethr =  1.60E-07,  avg # of iterations =  3.0

     total cpu time spent up to now is        7.4 secs

     total energy              =     -59.01154736 Ry
     estimated scf accuracy    <       0.00000270 Ry

     iteration # 11     ecut=    50.00 Ry     beta= 0.50
     Davidson diagonalization with overlap
     ethr =  1.50E-08,  avg # of iterations =  5.0

     total cpu time spent up to now is        8.1 secs

     total energy              =     -59.01154852 Ry
     estimated scf accuracy    <       0.00000013 Ry

     iteration # 12     ecut=    50.00 Ry     beta= 0.50
     Davidson diagonalization with overlap
     ethr =  7.41E-10,  avg # of iterations =  5.0

     total cpu time spent up to now is        8.8 secs

     total energy              =     -59.01154845 Ry
     estimated scf accuracy    <       0.00000035 Ry

     iteration # 13     ecut=    50.00 Ry     beta= 0.50
     Davidson diagonalization with overlap
     ethr =  7.41E-10,  avg # of iterations =  3.0

     total cpu time spent up to now is        9.4 secs

     total energy              =     -59.01154848 Ry
     estimated scf accuracy    <       0.00000002 Ry

     iteration # 14     ecut=    50.00 Ry     beta= 0.50
     Davidson diagonalization with overlap
     ethr =  1.34E-10,  avg # of iterations =  5.0

     total cpu time spent up to now is       10.1 secs

     total energy              =     -59.01154849 Ry
     estimated scf accuracy    <          2.8E-09 Ry

     iteration # 15     ecut=    50.00 Ry     beta= 0.50
     Davidson diagonalization with overlap
     ethr =  1.53E-11,  avg # of iterations =  1.0

     total cpu time spent up to now is       10.7 secs

     total energy              =     -59.01154849 Ry
     estimated scf accuracy    <          1.9E-09 Ry

     iteration # 16     ecut=    50.00 Ry     beta= 0.50
     Davidson diagonalization with overlap
     ethr =  1.07E-11,  avg # of iterations =  4.0

     total cpu time spent up to now is       11.4 secs

     total energy              =     -59.01154849 Ry
     estimated scf accuracy    <          4.5E-11 Ry

     iteration # 17     ecut=    50.00 Ry     beta= 0.50
     Davidson diagonalization with overlap
     ethr =  2.53E-13,  avg # of iterations =  3.0

     total cpu time spent up to now is       12.0 secs

     total energy              =     -59.01154849 Ry
     estimated scf accuracy    <          3.7E-11 Ry

     iteration # 18     ecut=    50.00 Ry     beta= 0.50
     Davidson diagonalization with overlap
     ethr =  2.07E-13,  avg # of iterations =  3.0

     total cpu time spent up to now is       12.6 secs

     total energy              =     -59.01154849 Ry
     estimated scf accuracy    <          1.7E-12 Ry

     iteration # 19     ecut=    50.00 Ry     beta= 0.50
     Davidson diagonalization with overlap
     ethr =  1.00E-13,  avg # of iterations =  1.0

     total cpu time spent up to now is       13.1 secs

     End of self-consistent calculation

          k = 0.0000 0.0000 0.0000 ( 23917 PWs)   bands (ev):

   -20.7527 -18.2316 -14.0306 -11.4872 -10.4710  -8.6812  -8.0585  -6.5853
    -5.8675

     highest occupied level (ev):    -5.8675

!    total energy              =     -59.01154849 Ry
     estimated scf accuracy    <          7.5E-13 Ry

     The total energy is the sum of the following terms:
     one-electron contribution =    -121.58156387 Ry
     hartree contribution      =      62.73576300 Ry
     xc contribution           =     -20.89836803 Ry
     ewald contribution        =      20.73262042 Ry

     convergence has been achieved in  19 iterations

     Forces acting on atoms (cartesian axes, Ry/au):

     atom    1 type  1   force =     0.00901315   -0.00003349    0.00915537
     atom    2 type  2   force =    -0.00305795    0.00015937   -0.00476867
     atom    3 type  2   force =     0.00069925   -0.00005082   -0.00197656
     atom    4 type  3   force =    -0.00865032   -0.00009395   -0.00469017
     atom    5 type  3   force =    -0.00853434    0.00003839    0.00937189
     atom    6 type  3   force =     0.01053021   -0.00001950   -0.00709186

     Total force =     0.024905     Total SCF correction =     0.000001

     Writing output data file ./Vynil_bromide.save/

     init_run     :      0.72s CPU      0.76s WALL (       1 calls)
     electrons    :     11.95s CPU     12.28s WALL (       1 calls)
     forces       :      0.47s CPU      0.48s WALL (       1 calls)

     Called by init_run:
     wfcinit      :      0.16s CPU      0.17s WALL (       1 calls)
     potinit      :      0.33s CPU      0.35s WALL (       1 calls)
     hinit0       :      0.17s CPU      0.18s WALL (       1 calls)

     Called by electrons:
     c_bands      :      5.73s CPU      5.78s WALL (      19 calls)
     sum_band     :      1.71s CPU      1.72s WALL (      19 calls)
     v_of_rho     :      3.60s CPU      3.86s WALL (      20 calls)
     mix_rho      :      0.94s CPU      0.96s WALL (      19 calls)

     Called by c_bands:
     init_us_2    :      0.13s CPU      0.13s WALL (      39 calls)
     regterg      :      5.55s CPU      5.59s WALL (      19 calls)

     Called by *egterg:
     rdiaghg      :      0.04s CPU      0.04s WALL (      87 calls)
     h_psi        :      5.12s CPU      5.16s WALL (      88 calls)
     g_psi        :      0.01s CPU      0.01s WALL (      68 calls)

     Called by h_psi:
     h_psi:calbec :      0.44s CPU      0.44s WALL (      88 calls)
     vloc_psi     :      4.32s CPU      4.35s WALL (      88 calls)
     add_vuspsi   :      0.34s CPU      0.34s WALL (      88 calls)

     General routines
     calbec       :      0.47s CPU      0.47s WALL (      92 calls)
     fft          :      2.75s CPU      2.83s WALL (     168 calls)
     ffts         :      0.27s CPU      0.27s WALL (      19 calls)
     fftw         :      4.01s CPU      4.03s WALL (     649 calls)

     Parallel routines

     PWSCF        :     13.25s CPU     13.64s WALL


   This run was terminated on:   4:39:43  24May2021            

=------------------------------------------------------------------------------=
   JOB DONE.
=------------------------------------------------------------------------------=
