
     Program PWSCF v.6.7GPU starts on 24May2021 at  7: 3:21 

     This program is part of the open-source Quantum ESPRESSO suite
     for quantum simulation of materials; please cite
         "P. Giannozzi et al., J. Phys.:Condens. Matter 21 395502 (2009);
         "P. Giannozzi et al., J. Phys.:Condens. Matter 29 465901 (2017);
         "P. Giannozzi et al., J. Chem. Phys. 152 154105 (2020);
          URL http://www.quantum-espresso.org", 
     in publications or presentations arising from this work. More details at
     http://www.quantum-espresso.org/quote

     Parallel version (MPI), running on     4 processors

     MPI processes distributed on     1 nodes
     R & G space division:  proc/nbgrp/npool/nimage =       4
     Waiting for input...
     Reading input from standard input
     Message from routine read_cards :
     DEPRECATED: no units specified in CELL_PARAMETERS card

     Current dimensions of program PWSCF are:
     Max number of different atomic species (ntypx) = 10
     Max number of k-points (npk) =  40000
     Max angular momentum in pseudopotentials (lmaxx) =  3

     gamma-point specific algorithms are used

     Subspace diagonalization in iterative solution of the eigenvalue problem:
     one sub-group per band group will be used
     scalapack distributed-memory algorithm (size of sub-group:  2*  2 procs)


     Parallelization info
     --------------------
     sticks:   dense  smooth     PW     G-vecs:    dense   smooth      PW
     Min        2069    2069    518               141623   141623   17686
     Max        2072    2072    520               141628   141628   17689
     Sum        8285    8285   2077               566507   566507   70751

     Using Slab Decomposition



     bravais-lattice index     =            0
     lattice parameter (alat)  =      20.0000  a.u.
     unit-cell volume          =    8000.0000 (a.u.)^3
     number of atoms/cell      =            6
     number of atomic types    =            3
     number of electrons       =        18.00
     number of Kohn-Sham states=            9
     kinetic-energy cutoff     =      65.0000  Ry
     charge density cutoff     =     260.0000  Ry
     scf convergence threshold =      1.0E-12
     mixing beta               =       0.5000
     number of iterations used =            8  plain     mixing
     Exchange-correlation= PBE
                           (   1   4   3   4   0   0   0)

     celldm(1)=  20.000000  celldm(2)=   0.000000  celldm(3)=   0.000000
     celldm(4)=   0.000000  celldm(5)=   0.000000  celldm(6)=   0.000000

     crystal axes: (cart. coord. in units of alat)
               a(1) = (   1.000000   0.000000   0.000000 )  
               a(2) = (   0.000000   1.000000   0.000000 )  
               a(3) = (   0.000000   0.000000   1.000000 )  

     reciprocal axes: (cart. coord. in units 2 pi/alat)
               b(1) = (  1.000000  0.000000  0.000000 )  
               b(2) = (  0.000000  1.000000  0.000000 )  
               b(3) = (  0.000000  0.000000  1.000000 )  


     PseudoPot. # 1 for C  read from file:
     /home/ciga/builds/pseudo_potentials/C.upf
     MD5 check sum: d80ec9912146af6c4c1760317d1f95e9
     Pseudo is Norm-conserving + core correction, Zval =  4.0
     Generated using ONCVPSP code by D. R. Hamann
     Using radial grid of 1248 points,  4 beta functions with: 
                l(1) =   0
                l(2) =   0
                l(3) =   1
                l(4) =   1

     PseudoPot. # 2 for H  read from file:
     /home/ciga/builds/pseudo_potentials/H.upf
     MD5 check sum: 418cee52d0c413ae40802e6cc37ab9e3
     Pseudo is Norm-conserving, Zval =  1.0
     Generated using ONCVPSP code by D. R. Hamann
     Using radial grid of 1166 points,  3 beta functions with: 
                l(1) =   0
                l(2) =   0
                l(3) =   1

     PseudoPot. # 3 for Cl read from file:
     /home/ciga/builds/pseudo_potentials/Cl.upf
     MD5 check sum: b1ddb435c2952724bdf458cc656d2c80
     Pseudo is Norm-conserving + core correction, Zval =  7.0
     Generated using ONCVPSP code by D. R. Hamann
     Using radial grid of 1028 points,  6 beta functions with: 
                l(1) =   0
                l(2) =   0
                l(3) =   1
                l(4) =   1
                l(5) =   2
                l(6) =   2

     atomic species   valence    mass     pseudopotential
        C              4.00    12.01070     C ( 1.00)
        H              1.00     1.00794     H ( 1.00)
        Cl             7.00    35.45300     Cl( 1.00)

     No symmetry found



   Cartesian axes

     site n.     atom                  positions (alat units)
         1           C   tau(   1) = (  -0.0523705  -0.0420805   0.0104952  )
         2           C   tau(   2) = (   0.0351729   0.0413883  -0.0221608  )
         3           H   tau(   3) = (  -0.1249197  -0.0199142   0.0786069  )
         4           H   tau(   4) = (  -0.0513719  -0.1346662  -0.0321760  )
         5           H   tau(   5) = (   0.1089667   0.0228062  -0.0899078  )
         6           Cl  tau(   6) = (   0.0416146   0.1916906   0.0407987  )

     number of k points=     1
                       cart. coord. in units 2pi/alat
        k(    1) = (   0.0000000   0.0000000   0.0000000), wk =   2.0000000

     Dense  grid:   283254 G-vectors     FFT dimensions: ( 108, 108, 108)

     Estimated max dynamical RAM per process >      71.97 MB

     Estimated total dynamical RAM >     287.89 MB

     Initial potential from superposition of free atoms

     starting charge   17.99988, renormalised to   18.00000

     negative rho (up, down):  2.233E-04 0.000E+00
     Starting wfcs are   15 randomized atomic wfcs

     total cpu time spent up to now is        1.3 secs

     Self-consistent Calculation

     iteration #  1     ecut=    65.00 Ry     beta= 0.50
     Davidson diagonalization with overlap
     ethr =  1.00E-02,  avg # of iterations =  2.0

     negative rho (up, down):  8.316E-05 0.000E+00

     total cpu time spent up to now is        2.4 secs

     total energy              =     -60.26161701 Ry
     estimated scf accuracy    <       0.66977205 Ry

     iteration #  2     ecut=    65.00 Ry     beta= 0.50
     Davidson diagonalization with overlap
     ethr =  3.72E-03,  avg # of iterations =  3.0

     negative rho (up, down):  3.282E-05 0.000E+00

     total cpu time spent up to now is        3.5 secs

     total energy              =     -60.39166278 Ry
     estimated scf accuracy    <       0.07704595 Ry

     iteration #  3     ecut=    65.00 Ry     beta= 0.50
     Davidson diagonalization with overlap
     ethr =  4.28E-04,  avg # of iterations =  2.0

     negative rho (up, down):  7.522E-06 0.000E+00

     total cpu time spent up to now is        4.4 secs

     total energy              =     -60.39515792 Ry
     estimated scf accuracy    <       0.01372784 Ry

     iteration #  4     ecut=    65.00 Ry     beta= 0.50
     Davidson diagonalization with overlap
     ethr =  7.63E-05,  avg # of iterations =  4.0

     negative rho (up, down):  2.093E-06 0.000E+00

     total cpu time spent up to now is        5.6 secs

     total energy              =     -60.39553271 Ry
     estimated scf accuracy    <       0.00876241 Ry

     iteration #  5     ecut=    65.00 Ry     beta= 0.50
     Davidson diagonalization with overlap
     ethr =  4.87E-05,  avg # of iterations =  5.0

     negative rho (up, down):  4.096E-07 0.000E+00

     total cpu time spent up to now is        6.8 secs

     total energy              =     -60.39835407 Ry
     estimated scf accuracy    <       0.00868559 Ry

     iteration #  6     ecut=    65.00 Ry     beta= 0.50
     Davidson diagonalization with overlap
     ethr =  4.83E-05,  avg # of iterations =  3.0

     negative rho (up, down):  3.515E-08 0.000E+00

     total cpu time spent up to now is        7.8 secs

     total energy              =     -60.39869717 Ry
     estimated scf accuracy    <       0.00090230 Ry

     iteration #  7     ecut=    65.00 Ry     beta= 0.50
     Davidson diagonalization with overlap
     ethr =  5.01E-06,  avg # of iterations =  6.0

     negative rho (up, down):  2.068E-08 0.000E+00

     total cpu time spent up to now is        9.1 secs

     total energy              =     -60.39909695 Ry
     estimated scf accuracy    <       0.00033781 Ry

     iteration #  8     ecut=    65.00 Ry     beta= 0.50
     Davidson diagonalization with overlap
     ethr =  1.88E-06,  avg # of iterations =  3.0

     total cpu time spent up to now is       10.1 secs

     total energy              =     -60.39911616 Ry
     estimated scf accuracy    <       0.00003856 Ry

     iteration #  9     ecut=    65.00 Ry     beta= 0.50
     Davidson diagonalization with overlap
     ethr =  2.14E-07,  avg # of iterations =  5.0

     total cpu time spent up to now is       11.3 secs

     total energy              =     -60.39913488 Ry
     estimated scf accuracy    <       0.00000742 Ry

     iteration # 10     ecut=    65.00 Ry     beta= 0.50
     Davidson diagonalization with overlap
     ethr =  4.12E-08,  avg # of iterations =  2.0

     total cpu time spent up to now is       12.3 secs

     total energy              =     -60.39913391 Ry
     estimated scf accuracy    <       0.00000305 Ry

     iteration # 11     ecut=    65.00 Ry     beta= 0.50
     Davidson diagonalization with overlap
     ethr =  1.70E-08,  avg # of iterations =  3.0

     total cpu time spent up to now is       13.5 secs

     total energy              =     -60.39913465 Ry
     estimated scf accuracy    <       0.00000001 Ry

     iteration # 12     ecut=    65.00 Ry     beta= 0.50
     Davidson diagonalization with overlap
     ethr =  6.56E-11,  avg # of iterations =  7.0

     total cpu time spent up to now is       15.0 secs

     total energy              =     -60.39913466 Ry
     estimated scf accuracy    <       0.00000005 Ry

     iteration # 13     ecut=    65.00 Ry     beta= 0.50
     Davidson diagonalization with overlap
     ethr =  6.56E-11,  avg # of iterations =  5.0

     total cpu time spent up to now is       16.4 secs

     total energy              =     -60.39913467 Ry
     estimated scf accuracy    <       0.00000004 Ry

     iteration # 14     ecut=    65.00 Ry     beta= 0.50
     Davidson diagonalization with overlap
     ethr =  6.56E-11,  avg # of iterations =  5.0

     total cpu time spent up to now is       17.6 secs

     total energy              =     -60.39913468 Ry
     estimated scf accuracy    <          7.6E-10 Ry

     iteration # 15     ecut=    65.00 Ry     beta= 0.50
     Davidson diagonalization with overlap
     ethr =  4.20E-12,  avg # of iterations =  5.0

     total cpu time spent up to now is       18.8 secs

     total energy              =     -60.39913468 Ry
     estimated scf accuracy    <          2.3E-09 Ry

     iteration # 16     ecut=    65.00 Ry     beta= 0.50
     Davidson diagonalization with overlap
     ethr =  4.20E-12,  avg # of iterations =  3.0

     total cpu time spent up to now is       19.8 secs

     total energy              =     -60.39913468 Ry
     estimated scf accuracy    <          3.8E-10 Ry

     iteration # 17     ecut=    65.00 Ry     beta= 0.50
     Davidson diagonalization with overlap
     ethr =  2.09E-12,  avg # of iterations =  5.0

     total cpu time spent up to now is       21.0 secs

     total energy              =     -60.39913468 Ry
     estimated scf accuracy    <          1.9E-12 Ry

     iteration # 18     ecut=    65.00 Ry     beta= 0.50
     Davidson diagonalization with overlap
     ethr =  1.00E-13,  avg # of iterations =  3.0

     total cpu time spent up to now is       22.0 secs

     total energy              =     -60.39913468 Ry
     estimated scf accuracy    <          4.1E-12 Ry

     iteration # 19     ecut=    65.00 Ry     beta= 0.50
     Davidson diagonalization with overlap
     ethr =  1.00E-13,  avg # of iterations =  1.0

     total cpu time spent up to now is       23.0 secs

     total energy              =     -60.39913468 Ry
     estimated scf accuracy    <          3.3E-12 Ry

     iteration # 20     ecut=    65.00 Ry     beta= 0.50
     Davidson diagonalization with overlap
     ethr =  1.00E-13,  avg # of iterations =  2.0

     total cpu time spent up to now is       23.9 secs

     End of self-consistent calculation

          k = 0.0000 0.0000 0.0000 ( 35376 PWs)   bands (ev):

   -21.6215 -18.2786 -14.1080 -11.7425 -10.7128  -9.0702  -8.6833  -7.1521
    -6.0465

     highest occupied level (ev):    -6.0465

!    total energy              =     -60.39913468 Ry
     estimated scf accuracy    <          9.3E-14 Ry

     The total energy is the sum of the following terms:
     one-electron contribution =    -131.76884647 Ry
     hartree contribution      =      67.88929867 Ry
     xc contribution           =     -19.52984875 Ry
     ewald contribution        =      23.01026187 Ry

     convergence has been achieved in  20 iterations

     Forces acting on atoms (cartesian axes, Ry/au):

     atom    1 type  1   force =     0.00201821    0.00207062   -0.00105750
     atom    2 type  1   force =    -0.00501715    0.00135364    0.00482578
     atom    3 type  2   force =    -0.00886357    0.00054407    0.00760033
     atom    4 type  2   force =    -0.00091870   -0.01170962   -0.00458314
     atom    5 type  2   force =     0.01017045   -0.00086524   -0.00850742
     atom    6 type  3   force =     0.00261076    0.00860652    0.00172195

     Total force =     0.024815     Total SCF correction =     0.000000

     Writing output data file ./Vynil_chloride.save/

     init_run     :      1.12s CPU      1.18s WALL (       1 calls)
     electrons    :     22.05s CPU     22.58s WALL (       1 calls)
     forces       :      0.69s CPU      0.71s WALL (       1 calls)

     Called by init_run:
     wfcinit      :      0.30s CPU      0.31s WALL (       1 calls)
     potinit      :      0.48s CPU      0.52s WALL (       1 calls)
     hinit0       :      0.23s CPU      0.24s WALL (       1 calls)

     Called by electrons:
     c_bands      :     11.57s CPU     11.66s WALL (      20 calls)
     sum_band     :      3.04s CPU      3.06s WALL (      20 calls)
     v_of_rho     :      5.74s CPU      6.18s WALL (      21 calls)
     mix_rho      :      1.76s CPU      1.77s WALL (      20 calls)

     Called by c_bands:
     init_us_2    :      0.21s CPU      0.21s WALL (      41 calls)
     regterg      :     11.28s CPU     11.36s WALL (      20 calls)

     Called by *egterg:
     rdiaghg      :      0.05s CPU      0.05s WALL (      94 calls)
     h_psi        :     10.52s CPU     10.61s WALL (      95 calls)
     g_psi        :      0.02s CPU      0.02s WALL (      74 calls)

     Called by h_psi:
     h_psi:calbec :      0.71s CPU      0.72s WALL (      95 calls)
     vloc_psi     :      9.21s CPU      9.29s WALL (      95 calls)
     add_vuspsi   :      0.55s CPU      0.55s WALL (      95 calls)

     General routines
     calbec       :      0.76s CPU      0.76s WALL (      99 calls)
     fft          :      4.21s CPU      4.28s WALL (     176 calls)
     ffts         :      0.50s CPU      0.50s WALL (      20 calls)
     fftw         :      8.95s CPU      9.02s WALL (     710 calls)

     Parallel routines

     PWSCF        :     23.98s CPU     24.62s WALL


   This run was terminated on:   7: 3:45  24May2021            

=------------------------------------------------------------------------------=
   JOB DONE.
=------------------------------------------------------------------------------=
