
     Program PWSCF v.6.7GPU starts on 24May2021 at  7: 5:14 

     This program is part of the open-source Quantum ESPRESSO suite
     for quantum simulation of materials; please cite
         "P. Giannozzi et al., J. Phys.:Condens. Matter 21 395502 (2009);
         "P. Giannozzi et al., J. Phys.:Condens. Matter 29 465901 (2017);
         "P. Giannozzi et al., J. Chem. Phys. 152 154105 (2020);
          URL http://www.quantum-espresso.org", 
     in publications or presentations arising from this work. More details at
     http://www.quantum-espresso.org/quote

     Parallel version (MPI), running on     4 processors

     MPI processes distributed on     1 nodes
     R & G space division:  proc/nbgrp/npool/nimage =       4
     Waiting for input...
     Reading input from standard input
     Message from routine read_cards :
     DEPRECATED: no units specified in CELL_PARAMETERS card

     Current dimensions of program PWSCF are:
     Max number of different atomic species (ntypx) = 10
     Max number of k-points (npk) =  40000
     Max angular momentum in pseudopotentials (lmaxx) =  3

     gamma-point specific algorithms are used

     Subspace diagonalization in iterative solution of the eigenvalue problem:
     one sub-group per band group will be used
     scalapack distributed-memory algorithm (size of sub-group:  2*  2 procs)


     Parallelization info
     --------------------
     sticks:   dense  smooth     PW     G-vecs:    dense   smooth      PW
     Min        2700    2700    675               211636   211636   26505
     Max        2704    2704    678               211641   211641   26514
     Sum       10805   10805   2709               846553   846553  106047

     Using Slab Decomposition



     bravais-lattice index     =            0
     lattice parameter (alat)  =      20.0000  a.u.
     unit-cell volume          =    8000.0000 (a.u.)^3
     number of atoms/cell      =            6
     number of atomic types    =            3
     number of electrons       =        18.00
     number of Kohn-Sham states=            9
     kinetic-energy cutoff     =      85.0000  Ry
     charge density cutoff     =     340.0000  Ry
     scf convergence threshold =      1.0E-12
     mixing beta               =       0.5000
     number of iterations used =            8  plain     mixing
     Exchange-correlation= PBE
                           (   1   4   3   4   0   0   0)

     celldm(1)=  20.000000  celldm(2)=   0.000000  celldm(3)=   0.000000
     celldm(4)=   0.000000  celldm(5)=   0.000000  celldm(6)=   0.000000

     crystal axes: (cart. coord. in units of alat)
               a(1) = (   1.000000   0.000000   0.000000 )  
               a(2) = (   0.000000   1.000000   0.000000 )  
               a(3) = (   0.000000   0.000000   1.000000 )  

     reciprocal axes: (cart. coord. in units 2 pi/alat)
               b(1) = (  1.000000  0.000000  0.000000 )  
               b(2) = (  0.000000  1.000000  0.000000 )  
               b(3) = (  0.000000  0.000000  1.000000 )  


     PseudoPot. # 1 for C  read from file:
     /home/ciga/builds/pseudo_potentials/C.upf
     MD5 check sum: d80ec9912146af6c4c1760317d1f95e9
     Pseudo is Norm-conserving + core correction, Zval =  4.0
     Generated using ONCVPSP code by D. R. Hamann
     Using radial grid of 1248 points,  4 beta functions with: 
                l(1) =   0
                l(2) =   0
                l(3) =   1
                l(4) =   1

     PseudoPot. # 2 for H  read from file:
     /home/ciga/builds/pseudo_potentials/H.upf
     MD5 check sum: 418cee52d0c413ae40802e6cc37ab9e3
     Pseudo is Norm-conserving, Zval =  1.0
     Generated using ONCVPSP code by D. R. Hamann
     Using radial grid of 1166 points,  3 beta functions with: 
                l(1) =   0
                l(2) =   0
                l(3) =   1

     PseudoPot. # 3 for Cl read from file:
     /home/ciga/builds/pseudo_potentials/Cl.upf
     MD5 check sum: b1ddb435c2952724bdf458cc656d2c80
     Pseudo is Norm-conserving + core correction, Zval =  7.0
     Generated using ONCVPSP code by D. R. Hamann
     Using radial grid of 1028 points,  6 beta functions with: 
                l(1) =   0
                l(2) =   0
                l(3) =   1
                l(4) =   1
                l(5) =   2
                l(6) =   2

     atomic species   valence    mass     pseudopotential
        C              4.00    12.01070     C ( 1.00)
        H              1.00     1.00794     H ( 1.00)
        Cl             7.00    35.45300     Cl( 1.00)

     No symmetry found



   Cartesian axes

     site n.     atom                  positions (alat units)
         1           C   tau(   1) = (  -0.0523705  -0.0420805   0.0104952  )
         2           C   tau(   2) = (   0.0351729   0.0413883  -0.0221608  )
         3           H   tau(   3) = (  -0.1249197  -0.0199142   0.0786069  )
         4           H   tau(   4) = (  -0.0513719  -0.1346662  -0.0321760  )
         5           H   tau(   5) = (   0.1089667   0.0228062  -0.0899078  )
         6           Cl  tau(   6) = (   0.0416146   0.1916906   0.0407987  )

     number of k points=     1
                       cart. coord. in units 2pi/alat
        k(    1) = (   0.0000000   0.0000000   0.0000000), wk =   2.0000000

     Dense  grid:   423277 G-vectors     FFT dimensions: ( 120, 120, 120)

     Estimated max dynamical RAM per process >     103.55 MB

     Estimated total dynamical RAM >     414.19 MB

     Initial potential from superposition of free atoms

     starting charge   17.99988, renormalised to   18.00000

     negative rho (up, down):  4.668E-05 0.000E+00
     Starting wfcs are   15 randomized atomic wfcs

     total cpu time spent up to now is        1.7 secs

     Self-consistent Calculation

     iteration #  1     ecut=    85.00 Ry     beta= 0.50
     Davidson diagonalization with overlap
     ethr =  1.00E-02,  avg # of iterations =  2.0

     negative rho (up, down):  7.272E-06 0.000E+00

     total cpu time spent up to now is        3.0 secs

     total energy              =     -60.26221132 Ry
     estimated scf accuracy    <       0.67310540 Ry

     iteration #  2     ecut=    85.00 Ry     beta= 0.50
     Davidson diagonalization with overlap
     ethr =  3.74E-03,  avg # of iterations =  3.0

     negative rho (up, down):  1.697E-06 0.000E+00

     total cpu time spent up to now is        4.4 secs

     total energy              =     -60.39458941 Ry
     estimated scf accuracy    <       0.07776537 Ry

     iteration #  3     ecut=    85.00 Ry     beta= 0.50
     Davidson diagonalization with overlap
     ethr =  4.32E-04,  avg # of iterations =  2.0

     negative rho (up, down):  3.130E-07 0.000E+00

     total cpu time spent up to now is        5.7 secs

     total energy              =     -60.39849100 Ry
     estimated scf accuracy    <       0.01412081 Ry

     iteration #  4     ecut=    85.00 Ry     beta= 0.50
     Davidson diagonalization with overlap
     ethr =  7.84E-05,  avg # of iterations =  4.0

     negative rho (up, down):  4.550E-08 0.000E+00

     total cpu time spent up to now is        7.2 secs

     total energy              =     -60.39889876 Ry
     estimated scf accuracy    <       0.00846359 Ry

     iteration #  5     ecut=    85.00 Ry     beta= 0.50
     Davidson diagonalization with overlap
     ethr =  4.70E-05,  avg # of iterations =  5.0

     total cpu time spent up to now is        8.7 secs

     total energy              =     -60.40102591 Ry
     estimated scf accuracy    <       0.01043213 Ry

     iteration #  6     ecut=    85.00 Ry     beta= 0.50
     Davidson diagonalization with overlap
     ethr =  4.70E-05,  avg # of iterations =  5.0

     total cpu time spent up to now is       10.1 secs

     total energy              =     -60.40227450 Ry
     estimated scf accuracy    <       0.00023063 Ry

     iteration #  7     ecut=    85.00 Ry     beta= 0.50
     Davidson diagonalization with overlap
     ethr =  1.28E-06,  avg # of iterations =  5.0

     total cpu time spent up to now is       11.7 secs

     total energy              =     -60.40237314 Ry
     estimated scf accuracy    <       0.00001460 Ry

     iteration #  8     ecut=    85.00 Ry     beta= 0.50
     Davidson diagonalization with overlap
     ethr =  8.11E-08,  avg # of iterations =  3.0

     total cpu time spent up to now is       13.1 secs

     total energy              =     -60.40237495 Ry
     estimated scf accuracy    <       0.00000234 Ry

     iteration #  9     ecut=    85.00 Ry     beta= 0.50
     Davidson diagonalization with overlap
     ethr =  1.30E-08,  avg # of iterations =  6.0

     total cpu time spent up to now is       14.8 secs

     total energy              =     -60.40237525 Ry
     estimated scf accuracy    <       0.00000249 Ry

     iteration # 10     ecut=    85.00 Ry     beta= 0.50
     Davidson diagonalization with overlap
     ethr =  1.30E-08,  avg # of iterations =  3.0

     total cpu time spent up to now is       16.1 secs

     total energy              =     -60.40237550 Ry
     estimated scf accuracy    <       0.00000016 Ry

     iteration # 11     ecut=    85.00 Ry     beta= 0.50
     Davidson diagonalization with overlap
     ethr =  8.85E-10,  avg # of iterations =  6.0

     total cpu time spent up to now is       17.8 secs

     total energy              =     -60.40237556 Ry
     estimated scf accuracy    <       0.00000017 Ry

     iteration # 12     ecut=    85.00 Ry     beta= 0.50
     Davidson diagonalization with overlap
     ethr =  8.85E-10,  avg # of iterations =  3.0

     total cpu time spent up to now is       19.2 secs

     total energy              =     -60.40237560 Ry
     estimated scf accuracy    <          8.2E-10 Ry

     iteration # 13     ecut=    85.00 Ry     beta= 0.50
     Davidson diagonalization with overlap
     ethr =  4.57E-12,  avg # of iterations =  7.0

     total cpu time spent up to now is       21.3 secs

     total energy              =     -60.40237560 Ry
     estimated scf accuracy    <       0.00000001 Ry

     iteration # 14     ecut=    85.00 Ry     beta= 0.50
     Davidson diagonalization with overlap
     ethr =  4.57E-12,  avg # of iterations =  6.0

     total cpu time spent up to now is       23.1 secs

     total energy              =     -60.40237560 Ry
     estimated scf accuracy    <          5.4E-10 Ry

     iteration # 15     ecut=    85.00 Ry     beta= 0.50
     Davidson diagonalization with overlap
     ethr =  3.01E-12,  avg # of iterations =  3.0

     total cpu time spent up to now is       24.5 secs

     total energy              =     -60.40237560 Ry
     estimated scf accuracy    <          2.0E-11 Ry

     iteration # 16     ecut=    85.00 Ry     beta= 0.50
     Davidson diagonalization with overlap
     ethr =  1.13E-13,  avg # of iterations =  2.0

     total cpu time spent up to now is       26.0 secs

     total energy              =     -60.40237560 Ry
     estimated scf accuracy    <          3.2E-12 Ry

     iteration # 17     ecut=    85.00 Ry     beta= 0.50
     Davidson diagonalization with overlap
     ethr =  1.00E-13,  avg # of iterations =  1.0

     total cpu time spent up to now is       27.1 secs

     End of self-consistent calculation

          k = 0.0000 0.0000 0.0000 ( 53024 PWs)   bands (ev):

   -21.6198 -18.2750 -14.1057 -11.7422 -10.7123  -9.0703  -8.6832  -7.1520
    -6.0469

     highest occupied level (ev):    -6.0469

!    total energy              =     -60.40237560 Ry
     estimated scf accuracy    <          5.2E-13 Ry

     The total energy is the sum of the following terms:
     one-electron contribution =    -131.77441734 Ry
     hartree contribution      =      67.89313601 Ry
     xc contribution           =     -19.53135615 Ry
     ewald contribution        =      23.01026187 Ry

     convergence has been achieved in  17 iterations

     Forces acting on atoms (cartesian axes, Ry/au):

     atom    1 type  1   force =     0.00173070    0.00173894   -0.00098296
     atom    2 type  1   force =    -0.00470466    0.00139006    0.00459191
     atom    3 type  2   force =    -0.00855454    0.00046074    0.00731815
     atom    4 type  2   force =    -0.00092595   -0.01131528   -0.00439446
     atom    5 type  2   force =     0.00984445   -0.00080534   -0.00822200
     atom    6 type  3   force =     0.00261001    0.00853089    0.00168936

     Total force =     0.023977     Total SCF correction =     0.000001

     Writing output data file ./Vynil_chloride.save/

     init_run     :      1.43s CPU      1.54s WALL (       1 calls)
     electrons    :     24.91s CPU     25.42s WALL (       1 calls)
     forces       :      0.92s CPU      0.94s WALL (       1 calls)

     Called by init_run:
     wfcinit      :      0.38s CPU      0.39s WALL (       1 calls)
     potinit      :      0.60s CPU      0.66s WALL (       1 calls)
     hinit0       :      0.28s CPU      0.30s WALL (       1 calls)

     Called by electrons:
     c_bands      :     13.14s CPU     13.23s WALL (      17 calls)
     sum_band     :      3.30s CPU      3.32s WALL (      17 calls)
     v_of_rho     :      6.58s CPU      6.98s WALL (      18 calls)
     mix_rho      :      2.04s CPU      2.08s WALL (      17 calls)

     Called by c_bands:
     init_us_2    :      0.26s CPU      0.26s WALL (      35 calls)
     regterg      :     12.78s CPU     12.87s WALL (      17 calls)

     Called by *egterg:
     rdiaghg      :      0.04s CPU      0.04s WALL (      83 calls)
     h_psi        :     11.62s CPU     11.70s WALL (      84 calls)
     g_psi        :      0.03s CPU      0.03s WALL (      66 calls)

     Called by h_psi:
     h_psi:calbec :      0.94s CPU      0.94s WALL (      84 calls)
     vloc_psi     :      9.87s CPU      9.94s WALL (      84 calls)
     add_vuspsi   :      0.75s CPU      0.75s WALL (      84 calls)

     General routines
     calbec       :      1.00s CPU      1.00s WALL (      88 calls)
     fft          :      4.73s CPU      4.84s WALL (     152 calls)
     ffts         :      0.50s CPU      0.51s WALL (      17 calls)
     fftw         :      9.17s CPU      9.23s WALL (     641 calls)

     Parallel routines

     PWSCF        :     27.39s CPU     28.07s WALL


   This run was terminated on:   7: 5:42  24May2021            

=------------------------------------------------------------------------------=
   JOB DONE.
=------------------------------------------------------------------------------=
