
     Program PWSCF v.6.7GPU starts on 24May2021 at  4:38:57 

     This program is part of the open-source Quantum ESPRESSO suite
     for quantum simulation of materials; please cite
         "P. Giannozzi et al., J. Phys.:Condens. Matter 21 395502 (2009);
         "P. Giannozzi et al., J. Phys.:Condens. Matter 29 465901 (2017);
         "P. Giannozzi et al., J. Chem. Phys. 152 154105 (2020);
          URL http://www.quantum-espresso.org", 
     in publications or presentations arising from this work. More details at
     http://www.quantum-espresso.org/quote

     Parallel version (MPI), running on     4 processors

     MPI processes distributed on     1 nodes
     R & G space division:  proc/nbgrp/npool/nimage =       4
     Waiting for input...
     Reading input from standard input
     Message from routine read_cards :
     DEPRECATED: no units specified in CELL_PARAMETERS card

     Current dimensions of program PWSCF are:
     Max number of different atomic species (ntypx) = 10
     Max number of k-points (npk) =  40000
     Max angular momentum in pseudopotentials (lmaxx) =  3

     gamma-point specific algorithms are used

     Subspace diagonalization in iterative solution of the eigenvalue problem:
     one sub-group per band group will be used
     scalapack distributed-memory algorithm (size of sub-group:  2*  2 procs)


     Parallelization info
     --------------------
     sticks:   dense  smooth     PW     G-vecs:    dense   smooth      PW
     Min         951     951    236                44375    44375    5524
     Max         954     954    238                44382    44382    5534
     Sum        3809    3809    949               177509   177509   22119

     Using Slab Decomposition



     bravais-lattice index     =            0
     lattice parameter (alat)  =      20.0000  a.u.
     unit-cell volume          =    8000.0000 (a.u.)^3
     number of atoms/cell      =            6
     number of atomic types    =            3
     number of electrons       =        18.00
     number of Kohn-Sham states=            9
     kinetic-energy cutoff     =      30.0000  Ry
     charge density cutoff     =     120.0000  Ry
     scf convergence threshold =      1.0E-12
     mixing beta               =       0.5000
     number of iterations used =            8  plain     mixing
     Exchange-correlation= PBE
                           (   1   4   3   4   0   0   0)

     celldm(1)=  20.000000  celldm(2)=   0.000000  celldm(3)=   0.000000
     celldm(4)=   0.000000  celldm(5)=   0.000000  celldm(6)=   0.000000

     crystal axes: (cart. coord. in units of alat)
               a(1) = (   1.000000   0.000000   0.000000 )  
               a(2) = (   0.000000   1.000000   0.000000 )  
               a(3) = (   0.000000   0.000000   1.000000 )  

     reciprocal axes: (cart. coord. in units 2 pi/alat)
               b(1) = (  1.000000  0.000000  0.000000 )  
               b(2) = (  0.000000  1.000000  0.000000 )  
               b(3) = (  0.000000  0.000000  1.000000 )  


     PseudoPot. # 1 for Br read from file:
     /home/ciga/builds/pseudo_potentials/Br.upf
     MD5 check sum: 41f672ce76ec6f6480a05aabe46aac99
     Pseudo is Norm-conserving + core correction, Zval =  7.0
     Generated using ONCVPSP code by D. R. Hamann
     Using radial grid of 1110 points,  6 beta functions with: 
                l(1) =   0
                l(2) =   0
                l(3) =   1
                l(4) =   1
                l(5) =   2
                l(6) =   2

     PseudoPot. # 2 for C  read from file:
     /home/ciga/builds/pseudo_potentials/C.upf
     MD5 check sum: d80ec9912146af6c4c1760317d1f95e9
     Pseudo is Norm-conserving + core correction, Zval =  4.0
     Generated using ONCVPSP code by D. R. Hamann
     Using radial grid of 1248 points,  4 beta functions with: 
                l(1) =   0
                l(2) =   0
                l(3) =   1
                l(4) =   1

     PseudoPot. # 3 for H  read from file:
     /home/ciga/builds/pseudo_potentials/H.upf
     MD5 check sum: 418cee52d0c413ae40802e6cc37ab9e3
     Pseudo is Norm-conserving, Zval =  1.0
     Generated using ONCVPSP code by D. R. Hamann
     Using radial grid of 1166 points,  3 beta functions with: 
                l(1) =   0
                l(2) =   0
                l(3) =   1

     atomic species   valence    mass     pseudopotential
        Br             7.00    79.90400     Br( 1.00)
        C              4.00    12.01070     C ( 1.00)
        H              1.00     1.00794     H ( 1.00)

     No symmetry found



   Cartesian axes

     site n.     atom                  positions (alat units)
         1           Br  tau(   1) = (   0.5673411   0.4251563   0.5794864  )
         2           C   tau(   2) = (   0.4177051   0.4251884   0.3580370  )
         3           C   tau(   3) = (   0.4177051   0.4251884   0.4832880  )
         4           H   tau(   4) = (   0.3285733   0.4253320   0.3078893  )
         5           H   tau(   5) = (   0.3331493   0.4251884   0.5401281  )
         6           H   tau(   6) = (   0.5035355   0.4251884   0.3031404  )

     number of k points=     1
                       cart. coord. in units 2pi/alat
        k(    1) = (   0.0000000   0.0000000   0.0000000), wk =   2.0000000

     Dense  grid:    88755 G-vectors     FFT dimensions: (  72,  72,  72)

     Estimated max dynamical RAM per process >      23.61 MB

     Estimated total dynamical RAM >      94.46 MB

     Initial potential from superposition of free atoms

     starting charge   17.99986, renormalised to   18.00000

     negative rho (up, down):  6.878E-03 0.000E+00
     Starting wfcs are   15 randomized atomic wfcs

     total cpu time spent up to now is        0.5 secs

     Self-consistent Calculation

     iteration #  1     ecut=    30.00 Ry     beta= 0.50
     Davidson diagonalization with overlap
     ethr =  1.00E-02,  avg # of iterations =  2.0

     negative rho (up, down):  3.146E-03 0.000E+00

     total cpu time spent up to now is        0.7 secs

     total energy              =     -58.67278006 Ry
     estimated scf accuracy    <       0.54705001 Ry

     iteration #  2     ecut=    30.00 Ry     beta= 0.50
     Davidson diagonalization with overlap
     ethr =  3.04E-03,  avg # of iterations =  4.0

     negative rho (up, down):  1.567E-03 0.000E+00

     total cpu time spent up to now is        1.0 secs

     total energy              =     -58.76285117 Ry
     estimated scf accuracy    <       0.07579497 Ry

     iteration #  3     ecut=    30.00 Ry     beta= 0.50
     Davidson diagonalization with overlap
     ethr =  4.21E-04,  avg # of iterations =  3.0

     negative rho (up, down):  6.073E-04 0.000E+00

     total cpu time spent up to now is        1.2 secs

     total energy              =     -58.77232473 Ry
     estimated scf accuracy    <       0.01412140 Ry

     iteration #  4     ecut=    30.00 Ry     beta= 0.50
     Davidson diagonalization with overlap
     ethr =  7.85E-05,  avg # of iterations =  2.0

     negative rho (up, down):  5.053E-05 0.000E+00

     total cpu time spent up to now is        1.4 secs

     total energy              =     -58.77309042 Ry
     estimated scf accuracy    <       0.00196503 Ry

     iteration #  5     ecut=    30.00 Ry     beta= 0.50
     Davidson diagonalization with overlap
     ethr =  1.09E-05,  avg # of iterations =  4.0

     negative rho (up, down):  7.304E-06 0.000E+00

     total cpu time spent up to now is        1.7 secs

     total energy              =     -58.77341105 Ry
     estimated scf accuracy    <       0.00043190 Ry

     iteration #  6     ecut=    30.00 Ry     beta= 0.50
     Davidson diagonalization with overlap
     ethr =  2.40E-06,  avg # of iterations =  3.0

     negative rho (up, down):  1.277E-06 0.000E+00

     total cpu time spent up to now is        1.9 secs

     total energy              =     -58.77353220 Ry
     estimated scf accuracy    <       0.00009164 Ry

     iteration #  7     ecut=    30.00 Ry     beta= 0.50
     Davidson diagonalization with overlap
     ethr =  5.09E-07,  avg # of iterations =  2.0

     total cpu time spent up to now is        2.1 secs

     total energy              =     -58.77353003 Ry
     estimated scf accuracy    <       0.00001899 Ry

     iteration #  8     ecut=    30.00 Ry     beta= 0.50
     Davidson diagonalization with overlap
     ethr =  1.05E-07,  avg # of iterations =  5.0

     total cpu time spent up to now is        2.4 secs

     total energy              =     -58.77353613 Ry
     estimated scf accuracy    <       0.00002056 Ry

     iteration #  9     ecut=    30.00 Ry     beta= 0.50
     Davidson diagonalization with overlap
     ethr =  1.05E-07,  avg # of iterations =  3.0

     total cpu time spent up to now is        2.6 secs

     total energy              =     -58.77353945 Ry
     estimated scf accuracy    <       0.00000046 Ry

     iteration # 10     ecut=    30.00 Ry     beta= 0.50
     Davidson diagonalization with overlap
     ethr =  2.54E-09,  avg # of iterations =  6.0

     total cpu time spent up to now is        2.9 secs

     total energy              =     -58.77353975 Ry
     estimated scf accuracy    <       0.00000121 Ry

     iteration # 11     ecut=    30.00 Ry     beta= 0.50
     Davidson diagonalization with overlap
     ethr =  2.54E-09,  avg # of iterations =  3.0

     total cpu time spent up to now is        3.2 secs

     total energy              =     -58.77353986 Ry
     estimated scf accuracy    <       0.00000008 Ry

     iteration # 12     ecut=    30.00 Ry     beta= 0.50
     Davidson diagonalization with overlap
     ethr =  4.68E-10,  avg # of iterations =  4.0

     total cpu time spent up to now is        3.4 secs

     total energy              =     -58.77353989 Ry
     estimated scf accuracy    <          2.6E-09 Ry

     iteration # 13     ecut=    30.00 Ry     beta= 0.50
     Davidson diagonalization with overlap
     ethr =  1.47E-11,  avg # of iterations =  2.0

     total cpu time spent up to now is        3.7 secs

     total energy              =     -58.77353989 Ry
     estimated scf accuracy    <          3.5E-10 Ry

     iteration # 14     ecut=    30.00 Ry     beta= 0.50
     Davidson diagonalization with overlap
     ethr =  1.96E-12,  avg # of iterations =  4.0

     total cpu time spent up to now is        3.9 secs

     total energy              =     -58.77353989 Ry
     estimated scf accuracy    <          3.8E-11 Ry

     iteration # 15     ecut=    30.00 Ry     beta= 0.50
     Davidson diagonalization with overlap
     ethr =  2.12E-13,  avg # of iterations =  5.0

     total cpu time spent up to now is        4.2 secs

     total energy              =     -58.77353989 Ry
     estimated scf accuracy    <          5.7E-11 Ry

     iteration # 16     ecut=    30.00 Ry     beta= 0.50
     Davidson diagonalization with overlap
     ethr =  2.12E-13,  avg # of iterations =  3.0

     total cpu time spent up to now is        4.4 secs

     total energy              =     -58.77353989 Ry
     estimated scf accuracy    <          1.4E-12 Ry

     iteration # 17     ecut=    30.00 Ry     beta= 0.50
     Davidson diagonalization with overlap
     ethr =  1.00E-13,  avg # of iterations =  2.0

     total cpu time spent up to now is        4.6 secs

     End of self-consistent calculation

          k = 0.0000 0.0000 0.0000 ( 11060 PWs)   bands (ev):

   -20.8393 -18.3517 -14.1118 -11.4955 -10.4658  -8.6688  -8.0528  -6.5847
    -5.8426

     highest occupied level (ev):    -5.8426

!    total energy              =     -58.77353989 Ry
     estimated scf accuracy    <          7.3E-13 Ry

     The total energy is the sum of the following terms:
     one-electron contribution =    -121.15422875 Ry
     hartree contribution      =      62.47139371 Ry
     xc contribution           =     -20.82332524 Ry
     ewald contribution        =      20.73262038 Ry

     convergence has been achieved in  17 iterations

     Forces acting on atoms (cartesian axes, Ry/au):

     atom    1 type  1   force =     0.01578134   -0.00003862    0.01368637
     atom    2 type  2   force =    -0.00281994    0.00013156   -0.00466677
     atom    3 type  2   force =     0.01272291   -0.00004209    0.00265806
     atom    4 type  3   force =    -0.02765635   -0.00006495   -0.01524911
     atom    5 type  3   force =    -0.02748178    0.00003530    0.02269099
     atom    6 type  3   force =     0.02945382   -0.00002121   -0.01911955

     Total force =     0.064309     Total SCF correction =     0.000002

     Writing output data file ./Vynil_bromide.save/

     init_run     :      0.35s CPU      0.38s WALL (       1 calls)
     electrons    :      4.03s CPU      4.14s WALL (       1 calls)
     forces       :      0.23s CPU      0.23s WALL (       1 calls)

     Called by init_run:
     wfcinit      :      0.06s CPU      0.06s WALL (       1 calls)
     potinit      :      0.15s CPU      0.17s WALL (       1 calls)
     hinit0       :      0.12s CPU      0.12s WALL (       1 calls)

     Called by electrons:
     c_bands      :      2.01s CPU      2.03s WALL (      17 calls)
     sum_band     :      0.52s CPU      0.53s WALL (      17 calls)
     v_of_rho     :      1.25s CPU      1.34s WALL (      18 calls)
     mix_rho      :      0.26s CPU      0.26s WALL (      17 calls)

     Called by c_bands:
     init_us_2    :      0.05s CPU      0.06s WALL (      35 calls)
     regterg      :      1.93s CPU      1.95s WALL (      17 calls)

     Called by *egterg:
     rdiaghg      :      0.04s CPU      0.04s WALL (      74 calls)
     h_psi        :      1.74s CPU      1.76s WALL (      75 calls)
     g_psi        :      0.00s CPU      0.00s WALL (      57 calls)

     Called by h_psi:
     h_psi:calbec :      0.20s CPU      0.20s WALL (      75 calls)
     vloc_psi     :      1.39s CPU      1.41s WALL (      75 calls)
     add_vuspsi   :      0.14s CPU      0.14s WALL (      75 calls)

     General routines
     calbec       :      0.22s CPU      0.22s WALL (      79 calls)
     fft          :      0.81s CPU      0.84s WALL (     152 calls)
     ffts         :      0.09s CPU      0.09s WALL (      17 calls)
     fftw         :      1.26s CPU      1.28s WALL (     603 calls)

     Parallel routines

     PWSCF        :      4.72s CPU      4.88s WALL


   This run was terminated on:   4:39: 2  24May2021            

=------------------------------------------------------------------------------=
   JOB DONE.
=------------------------------------------------------------------------------=
