
     Program PWSCF v.6.7GPU starts on 24May2021 at  4:39:43 

     This program is part of the open-source Quantum ESPRESSO suite
     for quantum simulation of materials; please cite
         "P. Giannozzi et al., J. Phys.:Condens. Matter 21 395502 (2009);
         "P. Giannozzi et al., J. Phys.:Condens. Matter 29 465901 (2017);
         "P. Giannozzi et al., J. Chem. Phys. 152 154105 (2020);
          URL http://www.quantum-espresso.org", 
     in publications or presentations arising from this work. More details at
     http://www.quantum-espresso.org/quote

     Parallel version (MPI), running on     4 processors

     MPI processes distributed on     1 nodes
     R & G space division:  proc/nbgrp/npool/nimage =       4
     Waiting for input...
     Reading input from standard input
     Message from routine read_cards :
     DEPRECATED: no units specified in CELL_PARAMETERS card

     Current dimensions of program PWSCF are:
     Max number of different atomic species (ntypx) = 10
     Max number of k-points (npk) =  40000
     Max angular momentum in pseudopotentials (lmaxx) =  3

     gamma-point specific algorithms are used

     Subspace diagonalization in iterative solution of the eigenvalue problem:
     one sub-group per band group will be used
     scalapack distributed-memory algorithm (size of sub-group:  2*  2 procs)


     Parallelization info
     --------------------
     sticks:   dense  smooth     PW     G-vecs:    dense   smooth      PW
     Min        1753    1753    438               110351   110351   13793
     Max        1756    1756    440               110356   110356   13796
     Sum        7017    7017   1757               441415   441415   55179

     Using Slab Decomposition



     bravais-lattice index     =            0
     lattice parameter (alat)  =      20.0000  a.u.
     unit-cell volume          =    8000.0000 (a.u.)^3
     number of atoms/cell      =            6
     number of atomic types    =            3
     number of electrons       =        18.00
     number of Kohn-Sham states=            9
     kinetic-energy cutoff     =      55.0000  Ry
     charge density cutoff     =     220.0000  Ry
     scf convergence threshold =      1.0E-12
     mixing beta               =       0.5000
     number of iterations used =            8  plain     mixing
     Exchange-correlation= PBE
                           (   1   4   3   4   0   0   0)

     celldm(1)=  20.000000  celldm(2)=   0.000000  celldm(3)=   0.000000
     celldm(4)=   0.000000  celldm(5)=   0.000000  celldm(6)=   0.000000

     crystal axes: (cart. coord. in units of alat)
               a(1) = (   1.000000   0.000000   0.000000 )  
               a(2) = (   0.000000   1.000000   0.000000 )  
               a(3) = (   0.000000   0.000000   1.000000 )  

     reciprocal axes: (cart. coord. in units 2 pi/alat)
               b(1) = (  1.000000  0.000000  0.000000 )  
               b(2) = (  0.000000  1.000000  0.000000 )  
               b(3) = (  0.000000  0.000000  1.000000 )  


     PseudoPot. # 1 for Br read from file:
     /home/ciga/builds/pseudo_potentials/Br.upf
     MD5 check sum: 41f672ce76ec6f6480a05aabe46aac99
     Pseudo is Norm-conserving + core correction, Zval =  7.0
     Generated using ONCVPSP code by D. R. Hamann
     Using radial grid of 1110 points,  6 beta functions with: 
                l(1) =   0
                l(2) =   0
                l(3) =   1
                l(4) =   1
                l(5) =   2
                l(6) =   2

     PseudoPot. # 2 for C  read from file:
     /home/ciga/builds/pseudo_potentials/C.upf
     MD5 check sum: d80ec9912146af6c4c1760317d1f95e9
     Pseudo is Norm-conserving + core correction, Zval =  4.0
     Generated using ONCVPSP code by D. R. Hamann
     Using radial grid of 1248 points,  4 beta functions with: 
                l(1) =   0
                l(2) =   0
                l(3) =   1
                l(4) =   1

     PseudoPot. # 3 for H  read from file:
     /home/ciga/builds/pseudo_potentials/H.upf
     MD5 check sum: 418cee52d0c413ae40802e6cc37ab9e3
     Pseudo is Norm-conserving, Zval =  1.0
     Generated using ONCVPSP code by D. R. Hamann
     Using radial grid of 1166 points,  3 beta functions with: 
                l(1) =   0
                l(2) =   0
                l(3) =   1

     atomic species   valence    mass     pseudopotential
        Br             7.00    79.90400     Br( 1.00)
        C              4.00    12.01070     C ( 1.00)
        H              1.00     1.00794     H ( 1.00)

     No symmetry found



   Cartesian axes

     site n.     atom                  positions (alat units)
         1           Br  tau(   1) = (   0.5673411   0.4251563   0.5794864  )
         2           C   tau(   2) = (   0.4177051   0.4251884   0.3580370  )
         3           C   tau(   3) = (   0.4177051   0.4251884   0.4832880  )
         4           H   tau(   4) = (   0.3285733   0.4253320   0.3078893  )
         5           H   tau(   5) = (   0.3331493   0.4251884   0.5401281  )
         6           H   tau(   6) = (   0.5035355   0.4251884   0.3031404  )

     number of k points=     1
                       cart. coord. in units 2pi/alat
        k(    1) = (   0.0000000   0.0000000   0.0000000), wk =   2.0000000

     Dense  grid:   220708 G-vectors     FFT dimensions: (  96,  96,  96)

     Estimated max dynamical RAM per process >      54.96 MB

     Estimated total dynamical RAM >     219.83 MB

     Initial potential from superposition of free atoms

     starting charge   17.99986, renormalised to   18.00000

     negative rho (up, down):  4.675E-04 0.000E+00
     Starting wfcs are   15 randomized atomic wfcs

     total cpu time spent up to now is        0.9 secs

     Self-consistent Calculation

     iteration #  1     ecut=    55.00 Ry     beta= 0.50
     Davidson diagonalization with overlap
     ethr =  1.00E-02,  avg # of iterations =  2.0

     negative rho (up, down):  1.785E-04 0.000E+00

     total cpu time spent up to now is        1.6 secs

     total energy              =     -58.87190133 Ry
     estimated scf accuracy    <       0.69827876 Ry

     iteration #  2     ecut=    55.00 Ry     beta= 0.50
     Davidson diagonalization with overlap
     ethr =  3.88E-03,  avg # of iterations =  3.0

     negative rho (up, down):  7.930E-05 0.000E+00

     total cpu time spent up to now is        2.3 secs

     total energy              =     -59.01887220 Ry
     estimated scf accuracy    <       0.07438412 Ry

     iteration #  3     ecut=    55.00 Ry     beta= 0.50
     Davidson diagonalization with overlap
     ethr =  4.13E-04,  avg # of iterations =  2.0

     negative rho (up, down):  1.759E-05 0.000E+00

     total cpu time spent up to now is        2.9 secs

     total energy              =     -59.02176995 Ry
     estimated scf accuracy    <       0.01501326 Ry

     iteration #  4     ecut=    55.00 Ry     beta= 0.50
     Davidson diagonalization with overlap
     ethr =  8.34E-05,  avg # of iterations =  4.0

     negative rho (up, down):  3.771E-06 0.000E+00

     total cpu time spent up to now is        3.6 secs

     total energy              =     -59.02276892 Ry
     estimated scf accuracy    <       0.00707984 Ry

     iteration #  5     ecut=    55.00 Ry     beta= 0.50
     Davidson diagonalization with overlap
     ethr =  3.93E-05,  avg # of iterations =  5.0

     negative rho (up, down):  1.024E-06 0.000E+00

     total cpu time spent up to now is        4.3 secs

     total energy              =     -59.02469896 Ry
     estimated scf accuracy    <       0.00784342 Ry

     iteration #  6     ecut=    55.00 Ry     beta= 0.50
     Davidson diagonalization with overlap
     ethr =  3.93E-05,  avg # of iterations =  4.0

     negative rho (up, down):  1.338E-07 0.000E+00

     total cpu time spent up to now is        5.0 secs

     total energy              =     -59.02552134 Ry
     estimated scf accuracy    <       0.00031665 Ry

     iteration #  7     ecut=    55.00 Ry     beta= 0.50
     Davidson diagonalization with overlap
     ethr =  1.76E-06,  avg # of iterations =  5.0

     negative rho (up, down):  1.918E-08 0.000E+00

     total cpu time spent up to now is        5.7 secs

     total energy              =     -59.02565281 Ry
     estimated scf accuracy    <       0.00001214 Ry

     iteration #  8     ecut=    55.00 Ry     beta= 0.50
     Davidson diagonalization with overlap
     ethr =  6.75E-08,  avg # of iterations =  3.0

     total cpu time spent up to now is        6.5 secs

     total energy              =     -59.02565097 Ry
     estimated scf accuracy    <       0.00001073 Ry

     iteration #  9     ecut=    55.00 Ry     beta= 0.50
     Davidson diagonalization with overlap
     ethr =  5.96E-08,  avg # of iterations =  4.0

     total cpu time spent up to now is        7.2 secs

     total energy              =     -59.02565380 Ry
     estimated scf accuracy    <       0.00000088 Ry

     iteration # 10     ecut=    55.00 Ry     beta= 0.50
     Davidson diagonalization with overlap
     ethr =  4.87E-09,  avg # of iterations =  2.0

     total cpu time spent up to now is        7.8 secs

     total energy              =     -59.02565356 Ry
     estimated scf accuracy    <       0.00000048 Ry

     iteration # 11     ecut=    55.00 Ry     beta= 0.50
     Davidson diagonalization with overlap
     ethr =  2.66E-09,  avg # of iterations =  5.0

     total cpu time spent up to now is        8.6 secs

     total energy              =     -59.02565374 Ry
     estimated scf accuracy    <       0.00000031 Ry

     iteration # 12     ecut=    55.00 Ry     beta= 0.50
     Davidson diagonalization with overlap
     ethr =  1.72E-09,  avg # of iterations =  2.0

     total cpu time spent up to now is        9.2 secs

     total energy              =     -59.02565375 Ry
     estimated scf accuracy    <       0.00000006 Ry

     iteration # 13     ecut=    55.00 Ry     beta= 0.50
     Davidson diagonalization with overlap
     ethr =  3.13E-10,  avg # of iterations =  5.0

     total cpu time spent up to now is        9.9 secs

     total energy              =     -59.02565377 Ry
     estimated scf accuracy    <          2.0E-09 Ry

     iteration # 14     ecut=    55.00 Ry     beta= 0.50
     Davidson diagonalization with overlap
     ethr =  1.13E-11,  avg # of iterations =  5.0

     total cpu time spent up to now is       10.7 secs

     total energy              =     -59.02565377 Ry
     estimated scf accuracy    <          1.2E-10 Ry

     iteration # 15     ecut=    55.00 Ry     beta= 0.50
     Davidson diagonalization with overlap
     ethr =  6.91E-13,  avg # of iterations =  6.0

     total cpu time spent up to now is       11.5 secs

     total energy              =     -59.02565377 Ry
     estimated scf accuracy    <          4.3E-11 Ry

     iteration # 16     ecut=    55.00 Ry     beta= 0.50
     Davidson diagonalization with overlap
     ethr =  2.39E-13,  avg # of iterations =  5.0

     total cpu time spent up to now is       12.2 secs

     total energy              =     -59.02565377 Ry
     estimated scf accuracy    <          5.7E-12 Ry

     iteration # 17     ecut=    55.00 Ry     beta= 0.50
     Davidson diagonalization with overlap
     ethr =  1.00E-13,  avg # of iterations =  2.0

     total cpu time spent up to now is       12.8 secs

     total energy              =     -59.02565377 Ry
     estimated scf accuracy    <          2.3E-12 Ry

     iteration # 18     ecut=    55.00 Ry     beta= 0.50
     Davidson diagonalization with overlap
     ethr =  1.00E-13,  avg # of iterations =  2.0

     total cpu time spent up to now is       13.4 secs

     End of self-consistent calculation

          k = 0.0000 0.0000 0.0000 ( 27590 PWs)   bands (ev):

   -20.7462 -18.2208 -14.0233 -11.4874 -10.4737  -8.6826  -8.0586  -6.5857
    -5.8686

     highest occupied level (ev):    -5.8686

!    total energy              =     -59.02565377 Ry
     estimated scf accuracy    <          7.4E-14 Ry

     The total energy is the sum of the following terms:
     one-electron contribution =    -121.60567266 Ry
     hartree contribution      =      62.75111284 Ry
     xc contribution           =     -20.90371424 Ry
     ewald contribution        =      20.73262028 Ry

     convergence has been achieved in  18 iterations

     Forces acting on atoms (cartesian axes, Ry/au):

     atom    1 type  1   force =     0.00871367   -0.00003337    0.00896035
     atom    2 type  2   force =    -0.00316347    0.00015938   -0.00103516
     atom    3 type  2   force =     0.00133911   -0.00005113   -0.00534076
     atom    4 type  3   force =    -0.00884655   -0.00009378   -0.00484255
     atom    5 type  3   force =    -0.00885123    0.00003849    0.00955751
     atom    6 type  3   force =     0.01080848   -0.00001959   -0.00729939

     Total force =     0.025282     Total SCF correction =     0.000000

     Writing output data file ./Vynil_bromide.save/

     init_run     :      0.78s CPU      0.80s WALL (       1 calls)
     electrons    :     12.19s CPU     12.48s WALL (       1 calls)
     forces       :      0.50s CPU      0.52s WALL (       1 calls)

     Called by init_run:
     wfcinit      :      0.18s CPU      0.18s WALL (       1 calls)
     potinit      :      0.34s CPU      0.36s WALL (       1 calls)
     hinit0       :      0.18s CPU      0.19s WALL (       1 calls)

     Called by electrons:
     c_bands      :      5.86s CPU      5.91s WALL (      18 calls)
     sum_band     :      1.70s CPU      1.71s WALL (      18 calls)
     v_of_rho     :      3.62s CPU      3.84s WALL (      19 calls)
     mix_rho      :      1.07s CPU      1.08s WALL (      18 calls)

     Called by c_bands:
     init_us_2    :      0.16s CPU      0.16s WALL (      37 calls)
     regterg      :      5.65s CPU      5.70s WALL (      18 calls)

     Called by *egterg:
     rdiaghg      :      0.04s CPU      0.04s WALL (      84 calls)
     h_psi        :      5.16s CPU      5.21s WALL (      85 calls)
     g_psi        :      0.01s CPU      0.01s WALL (      66 calls)

     Called by h_psi:
     h_psi:calbec :      0.48s CPU      0.48s WALL (      85 calls)
     vloc_psi     :      4.28s CPU      4.33s WALL (      85 calls)
     add_vuspsi   :      0.37s CPU      0.37s WALL (      85 calls)

     General routines
     calbec       :      0.52s CPU      0.52s WALL (      89 calls)
     fft          :      2.81s CPU      2.87s WALL (     160 calls)
     ffts         :      0.28s CPU      0.28s WALL (      18 calls)
     fftw         :      3.97s CPU      4.01s WALL (     628 calls)

     Parallel routines

     PWSCF        :     13.60s CPU     13.95s WALL


   This run was terminated on:   4:39:57  24May2021            

=------------------------------------------------------------------------------=
   JOB DONE.
=------------------------------------------------------------------------------=
