
     Program PWSCF v.6.7GPU starts on 24May2021 at  4:41:40 

     This program is part of the open-source Quantum ESPRESSO suite
     for quantum simulation of materials; please cite
         "P. Giannozzi et al., J. Phys.:Condens. Matter 21 395502 (2009);
         "P. Giannozzi et al., J. Phys.:Condens. Matter 29 465901 (2017);
         "P. Giannozzi et al., J. Chem. Phys. 152 154105 (2020);
          URL http://www.quantum-espresso.org", 
     in publications or presentations arising from this work. More details at
     http://www.quantum-espresso.org/quote

     Parallel version (MPI), running on     4 processors

     MPI processes distributed on     1 nodes
     R & G space division:  proc/nbgrp/npool/nimage =       4
     Waiting for input...
     Reading input from standard input
     Message from routine read_cards :
     DEPRECATED: no units specified in CELL_PARAMETERS card

     Current dimensions of program PWSCF are:
     Max number of different atomic species (ntypx) = 10
     Max number of k-points (npk) =  40000
     Max angular momentum in pseudopotentials (lmaxx) =  3

     gamma-point specific algorithms are used

     Subspace diagonalization in iterative solution of the eigenvalue problem:
     one sub-group per band group will be used
     scalapack distributed-memory algorithm (size of sub-group:  2*  2 procs)


     Parallelization info
     --------------------
     sticks:   dense  smooth     PW     G-vecs:    dense   smooth      PW
     Min        2543    2543    637               193371   193371   24241
     Max        2548    2548    642               193374   193374   24244
     Sum       10185   10185   2561               773489   773489   96969

     Using Slab Decomposition



     bravais-lattice index     =            0
     lattice parameter (alat)  =      20.0000  a.u.
     unit-cell volume          =    8000.0000 (a.u.)^3
     number of atoms/cell      =            6
     number of atomic types    =            3
     number of electrons       =        18.00
     number of Kohn-Sham states=            9
     kinetic-energy cutoff     =      80.0000  Ry
     charge density cutoff     =     320.0000  Ry
     scf convergence threshold =      1.0E-12
     mixing beta               =       0.5000
     number of iterations used =            8  plain     mixing
     Exchange-correlation= PBE
                           (   1   4   3   4   0   0   0)

     celldm(1)=  20.000000  celldm(2)=   0.000000  celldm(3)=   0.000000
     celldm(4)=   0.000000  celldm(5)=   0.000000  celldm(6)=   0.000000

     crystal axes: (cart. coord. in units of alat)
               a(1) = (   1.000000   0.000000   0.000000 )  
               a(2) = (   0.000000   1.000000   0.000000 )  
               a(3) = (   0.000000   0.000000   1.000000 )  

     reciprocal axes: (cart. coord. in units 2 pi/alat)
               b(1) = (  1.000000  0.000000  0.000000 )  
               b(2) = (  0.000000  1.000000  0.000000 )  
               b(3) = (  0.000000  0.000000  1.000000 )  


     PseudoPot. # 1 for Br read from file:
     /home/ciga/builds/pseudo_potentials/Br.upf
     MD5 check sum: 41f672ce76ec6f6480a05aabe46aac99
     Pseudo is Norm-conserving + core correction, Zval =  7.0
     Generated using ONCVPSP code by D. R. Hamann
     Using radial grid of 1110 points,  6 beta functions with: 
                l(1) =   0
                l(2) =   0
                l(3) =   1
                l(4) =   1
                l(5) =   2
                l(6) =   2

     PseudoPot. # 2 for C  read from file:
     /home/ciga/builds/pseudo_potentials/C.upf
     MD5 check sum: d80ec9912146af6c4c1760317d1f95e9
     Pseudo is Norm-conserving + core correction, Zval =  4.0
     Generated using ONCVPSP code by D. R. Hamann
     Using radial grid of 1248 points,  4 beta functions with: 
                l(1) =   0
                l(2) =   0
                l(3) =   1
                l(4) =   1

     PseudoPot. # 3 for H  read from file:
     /home/ciga/builds/pseudo_potentials/H.upf
     MD5 check sum: 418cee52d0c413ae40802e6cc37ab9e3
     Pseudo is Norm-conserving, Zval =  1.0
     Generated using ONCVPSP code by D. R. Hamann
     Using radial grid of 1166 points,  3 beta functions with: 
                l(1) =   0
                l(2) =   0
                l(3) =   1

     atomic species   valence    mass     pseudopotential
        Br             7.00    79.90400     Br( 1.00)
        C              4.00    12.01070     C ( 1.00)
        H              1.00     1.00794     H ( 1.00)

     No symmetry found



   Cartesian axes

     site n.     atom                  positions (alat units)
         1           Br  tau(   1) = (   0.5673411   0.4251563   0.5794864  )
         2           C   tau(   2) = (   0.4177051   0.4251884   0.3580370  )
         3           C   tau(   3) = (   0.4177051   0.4251884   0.4832880  )
         4           H   tau(   4) = (   0.3285733   0.4253320   0.3078893  )
         5           H   tau(   5) = (   0.3331493   0.4251884   0.5401281  )
         6           H   tau(   6) = (   0.5035355   0.4251884   0.3031404  )

     number of k points=     1
                       cart. coord. in units 2pi/alat
        k(    1) = (   0.0000000   0.0000000   0.0000000), wk =   2.0000000

     Dense  grid:   386745 G-vectors     FFT dimensions: ( 120, 120, 120)

     Estimated max dynamical RAM per process >      97.41 MB

     Estimated total dynamical RAM >     389.64 MB

     Initial potential from superposition of free atoms

     starting charge   17.99986, renormalised to   18.00000

     negative rho (up, down):  6.302E-05 0.000E+00
     Starting wfcs are   15 randomized atomic wfcs

     total cpu time spent up to now is        1.5 secs

     Self-consistent Calculation

     iteration #  1     ecut=    80.00 Ry     beta= 0.50
     Davidson diagonalization with overlap
     ethr =  1.00E-02,  avg # of iterations =  2.0

     negative rho (up, down):  9.901E-06 0.000E+00

     total cpu time spent up to now is        2.8 secs

     total energy              =     -58.88213563 Ry
     estimated scf accuracy    <       0.71047775 Ry

     iteration #  2     ecut=    80.00 Ry     beta= 0.50
     Davidson diagonalization with overlap
     ethr =  3.95E-03,  avg # of iterations =  3.0

     negative rho (up, down):  2.729E-06 0.000E+00

     total cpu time spent up to now is        4.2 secs

     total energy              =     -59.03341023 Ry
     estimated scf accuracy    <       0.07560430 Ry

     iteration #  3     ecut=    80.00 Ry     beta= 0.50
     Davidson diagonalization with overlap
     ethr =  4.20E-04,  avg # of iterations =  2.0

     negative rho (up, down):  5.202E-07 0.000E+00

     total cpu time spent up to now is        5.4 secs

     total energy              =     -59.03647375 Ry
     estimated scf accuracy    <       0.01538328 Ry

     iteration #  4     ecut=    80.00 Ry     beta= 0.50
     Davidson diagonalization with overlap
     ethr =  8.55E-05,  avg # of iterations =  4.0

     negative rho (up, down):  7.268E-08 0.000E+00

     total cpu time spent up to now is        6.8 secs

     total energy              =     -59.03761537 Ry
     estimated scf accuracy    <       0.00703062 Ry

     iteration #  5     ecut=    80.00 Ry     beta= 0.50
     Davidson diagonalization with overlap
     ethr =  3.91E-05,  avg # of iterations =  5.0

     negative rho (up, down):  2.170E-08 0.000E+00

     total cpu time spent up to now is        8.3 secs

     total energy              =     -59.03952381 Ry
     estimated scf accuracy    <       0.00777819 Ry

     iteration #  6     ecut=    80.00 Ry     beta= 0.50
     Davidson diagonalization with overlap
     ethr =  3.91E-05,  avg # of iterations =  4.0

     total cpu time spent up to now is        9.6 secs

     total energy              =     -59.04032671 Ry
     estimated scf accuracy    <       0.00032846 Ry

     iteration #  7     ecut=    80.00 Ry     beta= 0.50
     Davidson diagonalization with overlap
     ethr =  1.82E-06,  avg # of iterations =  5.0

     total cpu time spent up to now is       11.1 secs

     total energy              =     -59.04046389 Ry
     estimated scf accuracy    <       0.00001317 Ry

     iteration #  8     ecut=    80.00 Ry     beta= 0.50
     Davidson diagonalization with overlap
     ethr =  7.32E-08,  avg # of iterations =  3.0

     total cpu time spent up to now is       12.5 secs

     total energy              =     -59.04046185 Ry
     estimated scf accuracy    <       0.00001186 Ry

     iteration #  9     ecut=    80.00 Ry     beta= 0.50
     Davidson diagonalization with overlap
     ethr =  6.59E-08,  avg # of iterations =  4.0

     total cpu time spent up to now is       13.9 secs

     total energy              =     -59.04046488 Ry
     estimated scf accuracy    <       0.00000079 Ry

     iteration # 10     ecut=    80.00 Ry     beta= 0.50
     Davidson diagonalization with overlap
     ethr =  4.41E-09,  avg # of iterations =  2.0

     total cpu time spent up to now is       15.2 secs

     total energy              =     -59.04046468 Ry
     estimated scf accuracy    <       0.00000046 Ry

     iteration # 11     ecut=    80.00 Ry     beta= 0.50
     Davidson diagonalization with overlap
     ethr =  2.54E-09,  avg # of iterations =  5.0

     total cpu time spent up to now is       16.7 secs

     total energy              =     -59.04046484 Ry
     estimated scf accuracy    <       0.00000025 Ry

     iteration # 12     ecut=    80.00 Ry     beta= 0.50
     Davidson diagonalization with overlap
     ethr =  1.41E-09,  avg # of iterations =  2.0

     total cpu time spent up to now is       17.9 secs

     total energy              =     -59.04046484 Ry
     estimated scf accuracy    <       0.00000006 Ry

     iteration # 13     ecut=    80.00 Ry     beta= 0.50
     Davidson diagonalization with overlap
     ethr =  3.45E-10,  avg # of iterations =  5.0

     total cpu time spent up to now is       19.4 secs

     total energy              =     -59.04046486 Ry
     estimated scf accuracy    <          1.3E-09 Ry

     iteration # 14     ecut=    80.00 Ry     beta= 0.50
     Davidson diagonalization with overlap
     ethr =  7.28E-12,  avg # of iterations =  5.0

     total cpu time spent up to now is       20.9 secs

     total energy              =     -59.04046486 Ry
     estimated scf accuracy    <          1.6E-10 Ry

     iteration # 15     ecut=    80.00 Ry     beta= 0.50
     Davidson diagonalization with overlap
     ethr =  8.89E-13,  avg # of iterations =  3.0

     total cpu time spent up to now is       22.3 secs

     total energy              =     -59.04046486 Ry
     estimated scf accuracy    <          8.6E-11 Ry

     iteration # 16     ecut=    80.00 Ry     beta= 0.50
     Davidson diagonalization with overlap
     ethr =  4.79E-13,  avg # of iterations =  2.0

     total cpu time spent up to now is       23.6 secs

     total energy              =     -59.04046486 Ry
     estimated scf accuracy    <          1.4E-11 Ry

     iteration # 17     ecut=    80.00 Ry     beta= 0.50
     Davidson diagonalization with overlap
     ethr =  1.00E-13,  avg # of iterations =  5.0

     total cpu time spent up to now is       25.1 secs

     total energy              =     -59.04046486 Ry
     estimated scf accuracy    <          6.5E-12 Ry

     iteration # 18     ecut=    80.00 Ry     beta= 0.50
     Davidson diagonalization with overlap
     ethr =  1.00E-13,  avg # of iterations =  2.0

     total cpu time spent up to now is       26.2 secs

     End of self-consistent calculation

          k = 0.0000 0.0000 0.0000 ( 48485 PWs)   bands (ev):

   -20.7388 -18.2075 -14.0142 -11.4867 -10.4739  -8.6842  -8.0587  -6.5859
    -5.8700

     highest occupied level (ev):    -5.8700

!    total energy              =     -59.04046486 Ry
     estimated scf accuracy    <          1.2E-13 Ry

     The total energy is the sum of the following terms:
     one-electron contribution =    -121.63097126 Ry
     hartree contribution      =      62.76786380 Ry
     xc contribution           =     -20.90997780 Ry
     ewald contribution        =      20.73262039 Ry

     convergence has been achieved in  18 iterations

     Forces acting on atoms (cartesian axes, Ry/au):

     atom    1 type  1   force =     0.00839929   -0.00003319    0.00876418
     atom    2 type  2   force =    -0.00332169    0.00016101    0.00204095
     atom    3 type  2   force =     0.00108134   -0.00005157   -0.00849364
     atom    4 type  3   force =    -0.00810669   -0.00009501   -0.00449992
     atom    5 type  3   force =    -0.00822540    0.00003849    0.00911422
     atom    6 type  3   force =     0.01017316   -0.00001972   -0.00692580

     Total force =     0.024981     Total SCF correction =     0.000000

     Writing output data file ./Vynil_bromide.save/

     init_run     :      1.33s CPU      1.44s WALL (       1 calls)
     electrons    :     24.12s CPU     24.65s WALL (       1 calls)
     forces       :      0.88s CPU      0.91s WALL (       1 calls)

     Called by init_run:
     wfcinit      :      0.35s CPU      0.37s WALL (       1 calls)
     potinit      :      0.57s CPU      0.63s WALL (       1 calls)
     hinit0       :      0.26s CPU      0.29s WALL (       1 calls)

     Called by electrons:
     c_bands      :     12.16s CPU     12.25s WALL (      18 calls)
     sum_band     :      3.36s CPU      3.39s WALL (      18 calls)
     v_of_rho     :      6.69s CPU      7.12s WALL (      19 calls)
     mix_rho      :      2.03s CPU      2.05s WALL (      18 calls)

     Called by c_bands:
     init_us_2    :      0.24s CPU      0.25s WALL (      37 calls)
     regterg      :     11.82s CPU     11.90s WALL (      18 calls)

     Called by *egterg:
     rdiaghg      :      0.04s CPU      0.04s WALL (      81 calls)
     h_psi        :     10.85s CPU     10.94s WALL (      82 calls)
     g_psi        :      0.02s CPU      0.02s WALL (      63 calls)

     Called by h_psi:
     h_psi:calbec :      0.81s CPU      0.81s WALL (      82 calls)
     vloc_psi     :      9.32s CPU      9.40s WALL (      82 calls)
     add_vuspsi   :      0.66s CPU      0.66s WALL (      82 calls)

     General routines
     calbec       :      0.87s CPU      0.88s WALL (      86 calls)
     fft          :      5.23s CPU      5.33s WALL (     160 calls)
     ffts         :      0.50s CPU      0.51s WALL (      18 calls)
     fftw         :      8.73s CPU      8.80s WALL (     628 calls)

     Parallel routines

     PWSCF        :     26.44s CPU     27.13s WALL


   This run was terminated on:   4:42: 7  24May2021            

=------------------------------------------------------------------------------=
   JOB DONE.
=------------------------------------------------------------------------------=
