
     Program PWSCF v.6.7GPU starts on 24May2021 at  7: 2:10 

     This program is part of the open-source Quantum ESPRESSO suite
     for quantum simulation of materials; please cite
         "P. Giannozzi et al., J. Phys.:Condens. Matter 21 395502 (2009);
         "P. Giannozzi et al., J. Phys.:Condens. Matter 29 465901 (2017);
         "P. Giannozzi et al., J. Chem. Phys. 152 154105 (2020);
          URL http://www.quantum-espresso.org", 
     in publications or presentations arising from this work. More details at
     http://www.quantum-espresso.org/quote

     Parallel version (MPI), running on     4 processors

     MPI processes distributed on     1 nodes
     R & G space division:  proc/nbgrp/npool/nimage =       4
     Waiting for input...
     Reading input from standard input
     Message from routine read_cards :
     DEPRECATED: no units specified in CELL_PARAMETERS card

     Current dimensions of program PWSCF are:
     Max number of different atomic species (ntypx) = 10
     Max number of k-points (npk) =  40000
     Max angular momentum in pseudopotentials (lmaxx) =  3

     gamma-point specific algorithms are used

     Subspace diagonalization in iterative solution of the eigenvalue problem:
     one sub-group per band group will be used
     scalapack distributed-memory algorithm (size of sub-group:  2*  2 procs)


     Parallelization info
     --------------------
     sticks:   dense  smooth     PW     G-vecs:    dense   smooth      PW
     Min        1271    1271    317                68355    68355    8565
     Max        1276    1276    322                68358    68358    8568
     Sum        5097    5097   1281               273425   273425   34265

     Using Slab Decomposition



     bravais-lattice index     =            0
     lattice parameter (alat)  =      20.0000  a.u.
     unit-cell volume          =    8000.0000 (a.u.)^3
     number of atoms/cell      =            6
     number of atomic types    =            3
     number of electrons       =        18.00
     number of Kohn-Sham states=            9
     kinetic-energy cutoff     =      40.0000  Ry
     charge density cutoff     =     160.0000  Ry
     scf convergence threshold =      1.0E-12
     mixing beta               =       0.5000
     number of iterations used =            8  plain     mixing
     Exchange-correlation= PBE
                           (   1   4   3   4   0   0   0)

     celldm(1)=  20.000000  celldm(2)=   0.000000  celldm(3)=   0.000000
     celldm(4)=   0.000000  celldm(5)=   0.000000  celldm(6)=   0.000000

     crystal axes: (cart. coord. in units of alat)
               a(1) = (   1.000000   0.000000   0.000000 )  
               a(2) = (   0.000000   1.000000   0.000000 )  
               a(3) = (   0.000000   0.000000   1.000000 )  

     reciprocal axes: (cart. coord. in units 2 pi/alat)
               b(1) = (  1.000000  0.000000  0.000000 )  
               b(2) = (  0.000000  1.000000  0.000000 )  
               b(3) = (  0.000000  0.000000  1.000000 )  


     PseudoPot. # 1 for C  read from file:
     /home/ciga/builds/pseudo_potentials/C.upf
     MD5 check sum: d80ec9912146af6c4c1760317d1f95e9
     Pseudo is Norm-conserving + core correction, Zval =  4.0
     Generated using ONCVPSP code by D. R. Hamann
     Using radial grid of 1248 points,  4 beta functions with: 
                l(1) =   0
                l(2) =   0
                l(3) =   1
                l(4) =   1

     PseudoPot. # 2 for H  read from file:
     /home/ciga/builds/pseudo_potentials/H.upf
     MD5 check sum: 418cee52d0c413ae40802e6cc37ab9e3
     Pseudo is Norm-conserving, Zval =  1.0
     Generated using ONCVPSP code by D. R. Hamann
     Using radial grid of 1166 points,  3 beta functions with: 
                l(1) =   0
                l(2) =   0
                l(3) =   1

     PseudoPot. # 3 for Cl read from file:
     /home/ciga/builds/pseudo_potentials/Cl.upf
     MD5 check sum: b1ddb435c2952724bdf458cc656d2c80
     Pseudo is Norm-conserving + core correction, Zval =  7.0
     Generated using ONCVPSP code by D. R. Hamann
     Using radial grid of 1028 points,  6 beta functions with: 
                l(1) =   0
                l(2) =   0
                l(3) =   1
                l(4) =   1
                l(5) =   2
                l(6) =   2

     atomic species   valence    mass     pseudopotential
        C              4.00    12.01070     C ( 1.00)
        H              1.00     1.00794     H ( 1.00)
        Cl             7.00    35.45300     Cl( 1.00)

     No symmetry found



   Cartesian axes

     site n.     atom                  positions (alat units)
         1           C   tau(   1) = (  -0.0523705  -0.0420805   0.0104952  )
         2           C   tau(   2) = (   0.0351729   0.0413883  -0.0221608  )
         3           H   tau(   3) = (  -0.1249197  -0.0199142   0.0786069  )
         4           H   tau(   4) = (  -0.0513719  -0.1346662  -0.0321760  )
         5           H   tau(   5) = (   0.1089667   0.0228062  -0.0899078  )
         6           Cl  tau(   6) = (   0.0416146   0.1916906   0.0407987  )

     number of k points=     1
                       cart. coord. in units 2pi/alat
        k(    1) = (   0.0000000   0.0000000   0.0000000), wk =   2.0000000

     Dense  grid:   136713 G-vectors     FFT dimensions: (  81,  81,  81)

     Estimated max dynamical RAM per process >      34.94 MB

     Estimated total dynamical RAM >     139.75 MB

     Initial potential from superposition of free atoms

     starting charge   17.99988, renormalised to   18.00000

     negative rho (up, down):  1.563E-03 0.000E+00
     Starting wfcs are   15 randomized atomic wfcs

     total cpu time spent up to now is        0.6 secs

     Self-consistent Calculation

     iteration #  1     ecut=    40.00 Ry     beta= 0.50
     Davidson diagonalization with overlap
     ethr =  1.00E-02,  avg # of iterations =  2.0

     negative rho (up, down):  6.973E-04 0.000E+00

     total cpu time spent up to now is        1.1 secs

     total energy              =     -60.18825587 Ry
     estimated scf accuracy    <       0.61420216 Ry

     iteration #  2     ecut=    40.00 Ry     beta= 0.50
     Davidson diagonalization with overlap
     ethr =  3.41E-03,  avg # of iterations =  3.0

     negative rho (up, down):  3.219E-04 0.000E+00

     total cpu time spent up to now is        1.5 secs

     total energy              =     -60.29979924 Ry
     estimated scf accuracy    <       0.06865663 Ry

     iteration #  3     ecut=    40.00 Ry     beta= 0.50
     Davidson diagonalization with overlap
     ethr =  3.81E-04,  avg # of iterations =  2.0

     negative rho (up, down):  8.634E-05 0.000E+00

     total cpu time spent up to now is        1.9 secs

     total energy              =     -60.30542436 Ry
     estimated scf accuracy    <       0.01309961 Ry

     iteration #  4     ecut=    40.00 Ry     beta= 0.50
     Davidson diagonalization with overlap
     ethr =  7.28E-05,  avg # of iterations =  4.0

     negative rho (up, down):  1.761E-05 0.000E+00

     total cpu time spent up to now is        2.3 secs

     total energy              =     -60.30570020 Ry
     estimated scf accuracy    <       0.00582741 Ry

     iteration #  5     ecut=    40.00 Ry     beta= 0.50
     Davidson diagonalization with overlap
     ethr =  3.24E-05,  avg # of iterations =  5.0

     negative rho (up, down):  1.861E-06 0.000E+00

     total cpu time spent up to now is        2.7 secs

     total energy              =     -60.30747853 Ry
     estimated scf accuracy    <       0.00477214 Ry

     iteration #  6     ecut=    40.00 Ry     beta= 0.50
     Davidson diagonalization with overlap
     ethr =  2.65E-05,  avg # of iterations =  4.0

     negative rho (up, down):  1.564E-07 0.000E+00

     total cpu time spent up to now is        3.2 secs

     total energy              =     -60.30795971 Ry
     estimated scf accuracy    <       0.00015725 Ry

     iteration #  7     ecut=    40.00 Ry     beta= 0.50
     Davidson diagonalization with overlap
     ethr =  8.74E-07,  avg # of iterations =  6.0

     negative rho (up, down):  3.577E-08 0.000E+00

     total cpu time spent up to now is        3.6 secs

     total energy              =     -60.30803900 Ry
     estimated scf accuracy    <       0.00005162 Ry

     iteration #  8     ecut=    40.00 Ry     beta= 0.50
     Davidson diagonalization with overlap
     ethr =  2.87E-07,  avg # of iterations =  5.0

     total cpu time spent up to now is        4.1 secs

     total energy              =     -60.30805002 Ry
     estimated scf accuracy    <       0.00000244 Ry

     iteration #  9     ecut=    40.00 Ry     beta= 0.50
     Davidson diagonalization with overlap
     ethr =  1.35E-08,  avg # of iterations =  6.0

     total cpu time spent up to now is        4.6 secs

     total energy              =     -60.30805069 Ry
     estimated scf accuracy    <       0.00000053 Ry

     iteration # 10     ecut=    40.00 Ry     beta= 0.50
     Davidson diagonalization with overlap
     ethr =  2.94E-09,  avg # of iterations =  2.0

     total cpu time spent up to now is        5.0 secs

     total energy              =     -60.30805071 Ry
     estimated scf accuracy    <       0.00000021 Ry

     iteration # 11     ecut=    40.00 Ry     beta= 0.50
     Davidson diagonalization with overlap
     ethr =  1.19E-09,  avg # of iterations =  2.0

     total cpu time spent up to now is        5.3 secs

     total energy              =     -60.30805070 Ry
     estimated scf accuracy    <       0.00000005 Ry

     iteration # 12     ecut=    40.00 Ry     beta= 0.50
     Davidson diagonalization with overlap
     ethr =  2.65E-10,  avg # of iterations =  5.0

     total cpu time spent up to now is        5.8 secs

     total energy              =     -60.30805072 Ry
     estimated scf accuracy    <       0.00000002 Ry

     iteration # 13     ecut=    40.00 Ry     beta= 0.50
     Davidson diagonalization with overlap
     ethr =  8.46E-11,  avg # of iterations =  3.0

     total cpu time spent up to now is        6.2 secs

     total energy              =     -60.30805072 Ry
     estimated scf accuracy    <          2.1E-09 Ry

     iteration # 14     ecut=    40.00 Ry     beta= 0.50
     Davidson diagonalization with overlap
     ethr =  1.14E-11,  avg # of iterations =  5.0

     total cpu time spent up to now is        6.7 secs

     total energy              =     -60.30805073 Ry
     estimated scf accuracy    <          1.9E-10 Ry

     iteration # 15     ecut=    40.00 Ry     beta= 0.50
     Davidson diagonalization with overlap
     ethr =  1.05E-12,  avg # of iterations =  5.0

     total cpu time spent up to now is        7.1 secs

     total energy              =     -60.30805072 Ry
     estimated scf accuracy    <          1.7E-11 Ry

     iteration # 16     ecut=    40.00 Ry     beta= 0.50
     Davidson diagonalization with overlap
     ethr =  1.00E-13,  avg # of iterations =  4.0

     total cpu time spent up to now is        7.6 secs

     total energy              =     -60.30805072 Ry
     estimated scf accuracy    <          1.8E-12 Ry

     iteration # 17     ecut=    40.00 Ry     beta= 0.50
     Davidson diagonalization with overlap
     ethr =  1.00E-13,  avg # of iterations =  1.0

     total cpu time spent up to now is        7.9 secs

     End of self-consistent calculation

          k = 0.0000 0.0000 0.0000 ( 17133 PWs)   bands (ev):

   -21.6573 -18.3511 -14.1517 -11.7436 -10.6935  -9.0634  -8.6822  -7.1486
    -6.0354

     highest occupied level (ev):    -6.0354

!    total energy              =     -60.30805072 Ry
     estimated scf accuracy    <          9.5E-13 Ry

     The total energy is the sum of the following terms:
     one-electron contribution =    -131.60861398 Ry
     hartree contribution      =      67.78903640 Ry
     xc contribution           =     -19.49873504 Ry
     ewald contribution        =      23.01026190 Ry

     convergence has been achieved in  17 iterations

     Forces acting on atoms (cartesian axes, Ry/au):

     atom    1 type  1   force =    -0.00147799   -0.00060876    0.00060351
     atom    2 type  1   force =    -0.00204659   -0.00040984    0.00156143
     atom    3 type  2   force =    -0.00934992    0.00036898    0.00794135
     atom    4 type  2   force =    -0.00096936   -0.01223234   -0.00478399
     atom    5 type  2   force =     0.01096821   -0.00053925   -0.00901475
     atom    6 type  3   force =     0.00287565    0.01342121    0.00369245

     Total force =     0.027160     Total SCF correction =     0.000001

     Writing output data file ./Vynil_chloride.save/

     init_run     :      0.51s CPU      0.54s WALL (       1 calls)
     electrons    :      7.10s CPU      7.29s WALL (       1 calls)
     forces       :      0.34s CPU      0.35s WALL (       1 calls)

     Called by init_run:
     wfcinit      :      0.11s CPU      0.11s WALL (       1 calls)
     potinit      :      0.24s CPU      0.25s WALL (       1 calls)
     hinit0       :      0.12s CPU      0.13s WALL (       1 calls)

     Called by electrons:
     c_bands      :      3.57s CPU      3.61s WALL (      17 calls)
     sum_band     :      0.98s CPU      0.99s WALL (      17 calls)
     v_of_rho     :      2.07s CPU      2.22s WALL (      18 calls)
     mix_rho      :      0.52s CPU      0.52s WALL (      17 calls)

     Called by c_bands:
     init_us_2    :      0.08s CPU      0.09s WALL (      35 calls)
     regterg      :      3.45s CPU      3.48s WALL (      17 calls)

     Called by *egterg:
     rdiaghg      :      0.04s CPU      0.04s WALL (      81 calls)
     h_psi        :      3.17s CPU      3.20s WALL (      82 calls)
     g_psi        :      0.01s CPU      0.01s WALL (      64 calls)

     Called by h_psi:
     h_psi:calbec :      0.30s CPU      0.30s WALL (      82 calls)
     vloc_psi     :      2.64s CPU      2.68s WALL (      82 calls)
     add_vuspsi   :      0.22s CPU      0.22s WALL (      82 calls)

     General routines
     calbec       :      0.32s CPU      0.32s WALL (      86 calls)
     fft          :      1.41s CPU      1.46s WALL (     152 calls)
     ffts         :      0.16s CPU      0.16s WALL (      17 calls)
     fftw         :      2.47s CPU      2.50s WALL (     601 calls)

     Parallel routines

     PWSCF        :      8.06s CPU      8.31s WALL


   This run was terminated on:   7: 2:19  24May2021            

=------------------------------------------------------------------------------=
   JOB DONE.
=------------------------------------------------------------------------------=
