
     Program PWSCF v.6.7GPU starts on 24May2021 at  7: 3:45 

     This program is part of the open-source Quantum ESPRESSO suite
     for quantum simulation of materials; please cite
         "P. Giannozzi et al., J. Phys.:Condens. Matter 21 395502 (2009);
         "P. Giannozzi et al., J. Phys.:Condens. Matter 29 465901 (2017);
         "P. Giannozzi et al., J. Chem. Phys. 152 154105 (2020);
          URL http://www.quantum-espresso.org", 
     in publications or presentations arising from this work. More details at
     http://www.quantum-espresso.org/quote

     Parallel version (MPI), running on     4 processors

     MPI processes distributed on     1 nodes
     R & G space division:  proc/nbgrp/npool/nimage =       4
     Waiting for input...
     Reading input from standard input
     Message from routine read_cards :
     DEPRECATED: no units specified in CELL_PARAMETERS card

     Current dimensions of program PWSCF are:
     Max number of different atomic species (ntypx) = 10
     Max number of k-points (npk) =  40000
     Max angular momentum in pseudopotentials (lmaxx) =  3

     gamma-point specific algorithms are used

     Subspace diagonalization in iterative solution of the eigenvalue problem:
     one sub-group per band group will be used
     scalapack distributed-memory algorithm (size of sub-group:  2*  2 procs)


     Parallelization info
     --------------------
     sticks:   dense  smooth     PW     G-vecs:    dense   smooth      PW
     Min        2230    2230    557               158211   158211   19778
     Max        2234    2234    560               158214   158214   19781
     Sum        8929    8929   2233               632851   632851   79117

     Using Slab Decomposition



     bravais-lattice index     =            0
     lattice parameter (alat)  =      20.0000  a.u.
     unit-cell volume          =    8000.0000 (a.u.)^3
     number of atoms/cell      =            6
     number of atomic types    =            3
     number of electrons       =        18.00
     number of Kohn-Sham states=            9
     kinetic-energy cutoff     =      70.0000  Ry
     charge density cutoff     =     280.0000  Ry
     scf convergence threshold =      1.0E-12
     mixing beta               =       0.5000
     number of iterations used =            8  plain     mixing
     Exchange-correlation= PBE
                           (   1   4   3   4   0   0   0)

     celldm(1)=  20.000000  celldm(2)=   0.000000  celldm(3)=   0.000000
     celldm(4)=   0.000000  celldm(5)=   0.000000  celldm(6)=   0.000000

     crystal axes: (cart. coord. in units of alat)
               a(1) = (   1.000000   0.000000   0.000000 )  
               a(2) = (   0.000000   1.000000   0.000000 )  
               a(3) = (   0.000000   0.000000   1.000000 )  

     reciprocal axes: (cart. coord. in units 2 pi/alat)
               b(1) = (  1.000000  0.000000  0.000000 )  
               b(2) = (  0.000000  1.000000  0.000000 )  
               b(3) = (  0.000000  0.000000  1.000000 )  


     PseudoPot. # 1 for C  read from file:
     /home/ciga/builds/pseudo_potentials/C.upf
     MD5 check sum: d80ec9912146af6c4c1760317d1f95e9
     Pseudo is Norm-conserving + core correction, Zval =  4.0
     Generated using ONCVPSP code by D. R. Hamann
     Using radial grid of 1248 points,  4 beta functions with: 
                l(1) =   0
                l(2) =   0
                l(3) =   1
                l(4) =   1

     PseudoPot. # 2 for H  read from file:
     /home/ciga/builds/pseudo_potentials/H.upf
     MD5 check sum: 418cee52d0c413ae40802e6cc37ab9e3
     Pseudo is Norm-conserving, Zval =  1.0
     Generated using ONCVPSP code by D. R. Hamann
     Using radial grid of 1166 points,  3 beta functions with: 
                l(1) =   0
                l(2) =   0
                l(3) =   1

     PseudoPot. # 3 for Cl read from file:
     /home/ciga/builds/pseudo_potentials/Cl.upf
     MD5 check sum: b1ddb435c2952724bdf458cc656d2c80
     Pseudo is Norm-conserving + core correction, Zval =  7.0
     Generated using ONCVPSP code by D. R. Hamann
     Using radial grid of 1028 points,  6 beta functions with: 
                l(1) =   0
                l(2) =   0
                l(3) =   1
                l(4) =   1
                l(5) =   2
                l(6) =   2

     atomic species   valence    mass     pseudopotential
        C              4.00    12.01070     C ( 1.00)
        H              1.00     1.00794     H ( 1.00)
        Cl             7.00    35.45300     Cl( 1.00)

     No symmetry found



   Cartesian axes

     site n.     atom                  positions (alat units)
         1           C   tau(   1) = (  -0.0523705  -0.0420805   0.0104952  )
         2           C   tau(   2) = (   0.0351729   0.0413883  -0.0221608  )
         3           H   tau(   3) = (  -0.1249197  -0.0199142   0.0786069  )
         4           H   tau(   4) = (  -0.0513719  -0.1346662  -0.0321760  )
         5           H   tau(   5) = (   0.1089667   0.0228062  -0.0899078  )
         6           Cl  tau(   6) = (   0.0416146   0.1916906   0.0407987  )

     number of k points=     1
                       cart. coord. in units 2pi/alat
        k(    1) = (   0.0000000   0.0000000   0.0000000), wk =   2.0000000

     Dense  grid:   316426 G-vectors     FFT dimensions: ( 108, 108, 108)

     Estimated max dynamical RAM per process >      77.57 MB

     Estimated total dynamical RAM >     310.26 MB

     Initial potential from superposition of free atoms

     starting charge   17.99988, renormalised to   18.00000

     negative rho (up, down):  1.632E-04 0.000E+00
     Starting wfcs are   15 randomized atomic wfcs

     total cpu time spent up to now is        1.3 secs

     Self-consistent Calculation

     iteration #  1     ecut=    70.00 Ry     beta= 0.50
     Davidson diagonalization with overlap
     ethr =  1.00E-02,  avg # of iterations =  2.0

     negative rho (up, down):  5.117E-05 0.000E+00

     total cpu time spent up to now is        2.5 secs

     total energy              =     -60.26270999 Ry
     estimated scf accuracy    <       0.66951828 Ry

     iteration #  2     ecut=    70.00 Ry     beta= 0.50
     Davidson diagonalization with overlap
     ethr =  3.72E-03,  avg # of iterations =  3.0

     negative rho (up, down):  1.856E-05 0.000E+00

     total cpu time spent up to now is        3.6 secs

     total energy              =     -60.39327669 Ry
     estimated scf accuracy    <       0.07701178 Ry

     iteration #  3     ecut=    70.00 Ry     beta= 0.50
     Davidson diagonalization with overlap
     ethr =  4.28E-04,  avg # of iterations =  2.0

     negative rho (up, down):  4.401E-06 0.000E+00

     total cpu time spent up to now is        4.6 secs

     total energy              =     -60.39728489 Ry
     estimated scf accuracy    <       0.01393106 Ry

     iteration #  4     ecut=    70.00 Ry     beta= 0.50
     Davidson diagonalization with overlap
     ethr =  7.74E-05,  avg # of iterations =  4.0

     negative rho (up, down):  8.372E-07 0.000E+00

     total cpu time spent up to now is        5.8 secs

     total energy              =     -60.39769989 Ry
     estimated scf accuracy    <       0.00821980 Ry

     iteration #  5     ecut=    70.00 Ry     beta= 0.50
     Davidson diagonalization with overlap
     ethr =  4.57E-05,  avg # of iterations =  5.0

     negative rho (up, down):  1.855E-07 0.000E+00

     total cpu time spent up to now is        7.1 secs

     total energy              =     -60.39977167 Ry
     estimated scf accuracy    <       0.01008786 Ry

     iteration #  6     ecut=    70.00 Ry     beta= 0.50
     Davidson diagonalization with overlap
     ethr =  4.57E-05,  avg # of iterations =  4.0

     negative rho (up, down):  3.393E-08 0.000E+00

     total cpu time spent up to now is        8.2 secs

     total energy              =     -60.40089974 Ry
     estimated scf accuracy    <       0.00034209 Ry

     iteration #  7     ecut=    70.00 Ry     beta= 0.50
     Davidson diagonalization with overlap
     ethr =  1.90E-06,  avg # of iterations =  5.0

     negative rho (up, down):  1.229E-08 0.000E+00

     total cpu time spent up to now is        9.4 secs

     total energy              =     -60.40106885 Ry
     estimated scf accuracy    <       0.00002942 Ry

     iteration #  8     ecut=    70.00 Ry     beta= 0.50
     Davidson diagonalization with overlap
     ethr =  1.63E-07,  avg # of iterations =  2.0

     total cpu time spent up to now is       10.5 secs

     total energy              =     -60.40106566 Ry
     estimated scf accuracy    <       0.00000945 Ry

     iteration #  9     ecut=    70.00 Ry     beta= 0.50
     Davidson diagonalization with overlap
     ethr =  5.25E-08,  avg # of iterations =  6.0

     total cpu time spent up to now is       11.8 secs

     total energy              =     -60.40106828 Ry
     estimated scf accuracy    <       0.00000829 Ry

     iteration # 10     ecut=    70.00 Ry     beta= 0.50
     Davidson diagonalization with overlap
     ethr =  4.60E-08,  avg # of iterations =  3.0

     total cpu time spent up to now is       12.9 secs

     total energy              =     -60.40106982 Ry
     estimated scf accuracy    <       0.00000006 Ry

     iteration # 11     ecut=    70.00 Ry     beta= 0.50
     Davidson diagonalization with overlap
     ethr =  3.34E-10,  avg # of iterations =  8.0

     total cpu time spent up to now is       14.7 secs

     total energy              =     -60.40106989 Ry
     estimated scf accuracy    <       0.00000090 Ry

     iteration # 12     ecut=    70.00 Ry     beta= 0.50
     Davidson diagonalization with overlap
     ethr =  3.34E-10,  avg # of iterations =  6.0

     total cpu time spent up to now is       16.1 secs

     total energy              =     -60.40106995 Ry
     estimated scf accuracy    <       0.00000006 Ry

     iteration # 13     ecut=    70.00 Ry     beta= 0.50
     Davidson diagonalization with overlap
     ethr =  3.21E-10,  avg # of iterations =  3.0

     total cpu time spent up to now is       17.2 secs

     total energy              =     -60.40106996 Ry
     estimated scf accuracy    <          6.0E-10 Ry

     iteration # 14     ecut=    70.00 Ry     beta= 0.50
     Davidson diagonalization with overlap
     ethr =  3.34E-12,  avg # of iterations =  6.0

     total cpu time spent up to now is       18.7 secs

     total energy              =     -60.40106996 Ry
     estimated scf accuracy    <          4.0E-09 Ry

     iteration # 15     ecut=    70.00 Ry     beta= 0.50
     Davidson diagonalization with overlap
     ethr =  3.34E-12,  avg # of iterations =  5.0

     total cpu time spent up to now is       19.9 secs

     total energy              =     -60.40106996 Ry
     estimated scf accuracy    <          2.9E-11 Ry

     iteration # 16     ecut=    70.00 Ry     beta= 0.50
     Davidson diagonalization with overlap
     ethr =  1.61E-13,  avg # of iterations =  6.0

     total cpu time spent up to now is       21.5 secs

     total energy              =     -60.40106996 Ry
     estimated scf accuracy    <          3.4E-10 Ry

     iteration # 17     ecut=    70.00 Ry     beta= 0.50
     Davidson diagonalization with overlap
     ethr =  1.61E-13,  avg # of iterations =  6.0

     total cpu time spent up to now is       22.9 secs

     total energy              =     -60.40106996 Ry
     estimated scf accuracy    <          8.3E-12 Ry

     iteration # 18     ecut=    70.00 Ry     beta= 0.50
     Davidson diagonalization with overlap
     ethr =  1.00E-13,  avg # of iterations =  2.0

     total cpu time spent up to now is       23.9 secs

     total energy              =     -60.40106996 Ry
     estimated scf accuracy    <          1.5E-12 Ry

     iteration # 19     ecut=    70.00 Ry     beta= 0.50
     Davidson diagonalization with overlap
     ethr =  1.00E-13,  avg # of iterations =  1.0

     total cpu time spent up to now is       24.8 secs

     End of self-consistent calculation

          k = 0.0000 0.0000 0.0000 ( 39559 PWs)   bands (ev):

   -21.6205 -18.2765 -14.1067 -11.7424 -10.7126  -9.0703  -8.6832  -7.1521
    -6.0468

     highest occupied level (ev):    -6.0468

!    total energy              =     -60.40106996 Ry
     estimated scf accuracy    <          4.8E-13 Ry

     The total energy is the sum of the following terms:
     one-electron contribution =    -131.77216482 Ry
     hartree contribution      =      67.89154191 Ry
     xc contribution           =     -19.53070893 Ry
     ewald contribution        =      23.01026187 Ry

     convergence has been achieved in  19 iterations

     Forces acting on atoms (cartesian axes, Ry/au):

     atom    1 type  1   force =     0.00199705    0.00200346   -0.00107278
     atom    2 type  1   force =    -0.00498059    0.00125354    0.00475023
     atom    3 type  2   force =    -0.00868851    0.00050287    0.00744302
     atom    4 type  2   force =    -0.00092051   -0.01148307   -0.00447679
     atom    5 type  2   force =     0.00998304   -0.00083763   -0.00834505
     atom    6 type  3   force =     0.00260951    0.00856084    0.00170137

     Total force =     0.024392     Total SCF correction =     0.000001

     Writing output data file ./Vynil_chloride.save/

     init_run     :      1.19s CPU      1.23s WALL (       1 calls)
     electrons    :     22.99s CPU     23.45s WALL (       1 calls)
     forces       :      0.73s CPU      0.75s WALL (       1 calls)

     Called by init_run:
     wfcinit      :      0.32s CPU      0.32s WALL (       1 calls)
     potinit      :      0.50s CPU      0.53s WALL (       1 calls)
     hinit0       :      0.25s CPU      0.26s WALL (       1 calls)

     Called by electrons:
     c_bands      :     12.64s CPU     12.72s WALL (      19 calls)
     sum_band     :      2.96s CPU      3.00s WALL (      19 calls)
     v_of_rho     :      5.68s CPU      6.03s WALL (      20 calls)
     mix_rho      :      1.79s CPU      1.80s WALL (      19 calls)

     Called by c_bands:
     init_us_2    :      0.21s CPU      0.22s WALL (      39 calls)
     regterg      :     12.34s CPU     12.42s WALL (      19 calls)

     Called by *egterg:
     rdiaghg      :      0.05s CPU      0.05s WALL (      98 calls)
     h_psi        :     11.36s CPU     11.44s WALL (      99 calls)
     g_psi        :      0.03s CPU      0.03s WALL (      79 calls)

     Called by h_psi:
     h_psi:calbec :      0.82s CPU      0.82s WALL (      99 calls)
     vloc_psi     :      9.84s CPU      9.91s WALL (      99 calls)
     add_vuspsi   :      0.64s CPU      0.64s WALL (      99 calls)

     General routines
     calbec       :      0.87s CPU      0.87s WALL (     103 calls)
     fft          :      4.16s CPU      4.24s WALL (     168 calls)
     ffts         :      0.49s CPU      0.49s WALL (      19 calls)
     fftw         :      9.44s CPU      9.50s WALL (     733 calls)

     Parallel routines

     PWSCF        :     25.03s CPU     25.59s WALL


   This run was terminated on:   7: 4:11  24May2021            

=------------------------------------------------------------------------------=
   JOB DONE.
=------------------------------------------------------------------------------=
