
     Program PWSCF v.6.7GPU starts on 24May2021 at  7: 2: 3 

     This program is part of the open-source Quantum ESPRESSO suite
     for quantum simulation of materials; please cite
         "P. Giannozzi et al., J. Phys.:Condens. Matter 21 395502 (2009);
         "P. Giannozzi et al., J. Phys.:Condens. Matter 29 465901 (2017);
         "P. Giannozzi et al., J. Chem. Phys. 152 154105 (2020);
          URL http://www.quantum-espresso.org", 
     in publications or presentations arising from this work. More details at
     http://www.quantum-espresso.org/quote

     Parallel version (MPI), running on     4 processors

     MPI processes distributed on     1 nodes
     R & G space division:  proc/nbgrp/npool/nimage =       4
     Waiting for input...
     Reading input from standard input
     Message from routine read_cards :
     DEPRECATED: no units specified in CELL_PARAMETERS card

     Current dimensions of program PWSCF are:
     Max number of different atomic species (ntypx) = 10
     Max number of k-points (npk) =  40000
     Max angular momentum in pseudopotentials (lmaxx) =  3

     gamma-point specific algorithms are used

     Subspace diagonalization in iterative solution of the eigenvalue problem:
     one sub-group per band group will be used
     scalapack distributed-memory algorithm (size of sub-group:  2*  2 procs)


     Parallelization info
     --------------------
     sticks:   dense  smooth     PW     G-vecs:    dense   smooth      PW
     Min        1115    1115    276                55933    55933    7000
     Max        1118    1118    278                55934    55934    7006
     Sum        4469    4469   1109               223735   223735   28017

     Using Slab Decomposition



     bravais-lattice index     =            0
     lattice parameter (alat)  =      20.0000  a.u.
     unit-cell volume          =    8000.0000 (a.u.)^3
     number of atoms/cell      =            6
     number of atomic types    =            3
     number of electrons       =        18.00
     number of Kohn-Sham states=            9
     kinetic-energy cutoff     =      35.0000  Ry
     charge density cutoff     =     140.0000  Ry
     scf convergence threshold =      1.0E-12
     mixing beta               =       0.5000
     number of iterations used =            8  plain     mixing
     Exchange-correlation= PBE
                           (   1   4   3   4   0   0   0)

     celldm(1)=  20.000000  celldm(2)=   0.000000  celldm(3)=   0.000000
     celldm(4)=   0.000000  celldm(5)=   0.000000  celldm(6)=   0.000000

     crystal axes: (cart. coord. in units of alat)
               a(1) = (   1.000000   0.000000   0.000000 )  
               a(2) = (   0.000000   1.000000   0.000000 )  
               a(3) = (   0.000000   0.000000   1.000000 )  

     reciprocal axes: (cart. coord. in units 2 pi/alat)
               b(1) = (  1.000000  0.000000  0.000000 )  
               b(2) = (  0.000000  1.000000  0.000000 )  
               b(3) = (  0.000000  0.000000  1.000000 )  


     PseudoPot. # 1 for C  read from file:
     /home/ciga/builds/pseudo_potentials/C.upf
     MD5 check sum: d80ec9912146af6c4c1760317d1f95e9
     Pseudo is Norm-conserving + core correction, Zval =  4.0
     Generated using ONCVPSP code by D. R. Hamann
     Using radial grid of 1248 points,  4 beta functions with: 
                l(1) =   0
                l(2) =   0
                l(3) =   1
                l(4) =   1

     PseudoPot. # 2 for H  read from file:
     /home/ciga/builds/pseudo_potentials/H.upf
     MD5 check sum: 418cee52d0c413ae40802e6cc37ab9e3
     Pseudo is Norm-conserving, Zval =  1.0
     Generated using ONCVPSP code by D. R. Hamann
     Using radial grid of 1166 points,  3 beta functions with: 
                l(1) =   0
                l(2) =   0
                l(3) =   1

     PseudoPot. # 3 for Cl read from file:
     /home/ciga/builds/pseudo_potentials/Cl.upf
     MD5 check sum: b1ddb435c2952724bdf458cc656d2c80
     Pseudo is Norm-conserving + core correction, Zval =  7.0
     Generated using ONCVPSP code by D. R. Hamann
     Using radial grid of 1028 points,  6 beta functions with: 
                l(1) =   0
                l(2) =   0
                l(3) =   1
                l(4) =   1
                l(5) =   2
                l(6) =   2

     atomic species   valence    mass     pseudopotential
        C              4.00    12.01070     C ( 1.00)
        H              1.00     1.00794     H ( 1.00)
        Cl             7.00    35.45300     Cl( 1.00)

     No symmetry found



   Cartesian axes

     site n.     atom                  positions (alat units)
         1           C   tau(   1) = (  -0.0523705  -0.0420805   0.0104952  )
         2           C   tau(   2) = (   0.0351729   0.0413883  -0.0221608  )
         3           H   tau(   3) = (  -0.1249197  -0.0199142   0.0786069  )
         4           H   tau(   4) = (  -0.0513719  -0.1346662  -0.0321760  )
         5           H   tau(   5) = (   0.1089667   0.0228062  -0.0899078  )
         6           Cl  tau(   6) = (   0.0416146   0.1916906   0.0407987  )

     number of k points=     1
                       cart. coord. in units 2pi/alat
        k(    1) = (   0.0000000   0.0000000   0.0000000), wk =   2.0000000

     Dense  grid:   111868 G-vectors     FFT dimensions: (  75,  75,  75)

     Estimated max dynamical RAM per process >      28.55 MB

     Estimated total dynamical RAM >     114.19 MB

     Initial potential from superposition of free atoms

     starting charge   17.99988, renormalised to   18.00000

     negative rho (up, down):  2.943E-03 0.000E+00
     Starting wfcs are   15 randomized atomic wfcs

     total cpu time spent up to now is        0.5 secs

     Self-consistent Calculation

     iteration #  1     ecut=    35.00 Ry     beta= 0.50
     Davidson diagonalization with overlap
     ethr =  1.00E-02,  avg # of iterations =  2.0

     negative rho (up, down):  1.346E-03 0.000E+00

     total cpu time spent up to now is        0.8 secs

     total energy              =     -60.13202242 Ry
     estimated scf accuracy    <       0.58019537 Ry

     iteration #  2     ecut=    35.00 Ry     beta= 0.50
     Davidson diagonalization with overlap
     ethr =  3.22E-03,  avg # of iterations =  3.0

     negative rho (up, down):  6.351E-04 0.000E+00

     total cpu time spent up to now is        1.2 secs

     total energy              =     -60.23448500 Ry
     estimated scf accuracy    <       0.06921721 Ry

     iteration #  3     ecut=    35.00 Ry     beta= 0.50
     Davidson diagonalization with overlap
     ethr =  3.85E-04,  avg # of iterations =  2.0

     negative rho (up, down):  1.595E-04 0.000E+00

     total cpu time spent up to now is        1.4 secs

     total energy              =     -60.23805916 Ry
     estimated scf accuracy    <       0.01173388 Ry

     iteration #  4     ecut=    35.00 Ry     beta= 0.50
     Davidson diagonalization with overlap
     ethr =  6.52E-05,  avg # of iterations =  4.0

     negative rho (up, down):  2.681E-05 0.000E+00

     total cpu time spent up to now is        1.8 secs

     total energy              =     -60.23855127 Ry
     estimated scf accuracy    <       0.00607939 Ry

     iteration #  5     ecut=    35.00 Ry     beta= 0.50
     Davidson diagonalization with overlap
     ethr =  3.38E-05,  avg # of iterations =  5.0

     negative rho (up, down):  4.906E-06 0.000E+00

     total cpu time spent up to now is        2.1 secs

     total energy              =     -60.24035037 Ry
     estimated scf accuracy    <       0.00562025 Ry

     iteration #  6     ecut=    35.00 Ry     beta= 0.50
     Davidson diagonalization with overlap
     ethr =  3.12E-05,  avg # of iterations =  3.0

     negative rho (up, down):  1.167E-07 0.000E+00

     total cpu time spent up to now is        2.4 secs

     total energy              =     -60.24065821 Ry
     estimated scf accuracy    <       0.00052549 Ry

     iteration #  7     ecut=    35.00 Ry     beta= 0.50
     Davidson diagonalization with overlap
     ethr =  2.92E-06,  avg # of iterations =  6.0

     negative rho (up, down):  5.851E-08 0.000E+00

     total cpu time spent up to now is        2.8 secs

     total energy              =     -60.24093365 Ry
     estimated scf accuracy    <       0.00048366 Ry

     iteration #  8     ecut=    35.00 Ry     beta= 0.50
     Davidson diagonalization with overlap
     ethr =  2.69E-06,  avg # of iterations =  3.0

     total cpu time spent up to now is        3.1 secs

     total energy              =     -60.24097454 Ry
     estimated scf accuracy    <       0.00003895 Ry

     iteration #  9     ecut=    35.00 Ry     beta= 0.50
     Davidson diagonalization with overlap
     ethr =  2.16E-07,  avg # of iterations =  6.0

     total cpu time spent up to now is        3.4 secs

     total energy              =     -60.24099379 Ry
     estimated scf accuracy    <       0.00001164 Ry

     iteration # 10     ecut=    35.00 Ry     beta= 0.50
     Davidson diagonalization with overlap
     ethr =  6.47E-08,  avg # of iterations =  3.0

     total cpu time spent up to now is        3.7 secs

     total energy              =     -60.24099401 Ry
     estimated scf accuracy    <       0.00000210 Ry

     iteration # 11     ecut=    35.00 Ry     beta= 0.50
     Davidson diagonalization with overlap
     ethr =  1.17E-08,  avg # of iterations =  5.0

     total cpu time spent up to now is        4.1 secs

     total energy              =     -60.24099468 Ry
     estimated scf accuracy    <       0.00000015 Ry

     iteration # 12     ecut=    35.00 Ry     beta= 0.50
     Davidson diagonalization with overlap
     ethr =  8.24E-10,  avg # of iterations =  5.0

     total cpu time spent up to now is        4.4 secs

     total energy              =     -60.24099473 Ry
     estimated scf accuracy    <       0.00000006 Ry

     iteration # 13     ecut=    35.00 Ry     beta= 0.50
     Davidson diagonalization with overlap
     ethr =  3.58E-10,  avg # of iterations =  2.0

     total cpu time spent up to now is        4.7 secs

     total energy              =     -60.24099472 Ry
     estimated scf accuracy    <       0.00000002 Ry

     iteration # 14     ecut=    35.00 Ry     beta= 0.50
     Davidson diagonalization with overlap
     ethr =  9.27E-11,  avg # of iterations =  5.0

     total cpu time spent up to now is        5.1 secs

     total energy              =     -60.24099473 Ry
     estimated scf accuracy    <          7.0E-09 Ry

     iteration # 15     ecut=    35.00 Ry     beta= 0.50
     Davidson diagonalization with overlap
     ethr =  3.86E-11,  avg # of iterations =  2.0

     total cpu time spent up to now is        5.3 secs

     total energy              =     -60.24099473 Ry
     estimated scf accuracy    <          1.6E-09 Ry

     iteration # 16     ecut=    35.00 Ry     beta= 0.50
     Davidson diagonalization with overlap
     ethr =  9.12E-12,  avg # of iterations =  5.0

     total cpu time spent up to now is        5.7 secs

     total energy              =     -60.24099473 Ry
     estimated scf accuracy    <          1.9E-10 Ry

     iteration # 17     ecut=    35.00 Ry     beta= 0.50
     Davidson diagonalization with overlap
     ethr =  1.06E-12,  avg # of iterations =  1.0

     total cpu time spent up to now is        6.0 secs

     total energy              =     -60.24099473 Ry
     estimated scf accuracy    <          1.1E-10 Ry

     iteration # 18     ecut=    35.00 Ry     beta= 0.50
     Davidson diagonalization with overlap
     ethr =  6.29E-13,  avg # of iterations =  3.0

     total cpu time spent up to now is        6.3 secs

     total energy              =     -60.24099473 Ry
     estimated scf accuracy    <          3.0E-12 Ry

     iteration # 19     ecut=    35.00 Ry     beta= 0.50
     Davidson diagonalization with overlap
     ethr =  1.00E-13,  avg # of iterations =  5.0

     total cpu time spent up to now is        6.6 secs

     total energy              =     -60.24099473 Ry
     estimated scf accuracy    <          2.6E-12 Ry

     iteration # 20     ecut=    35.00 Ry     beta= 0.50
     Davidson diagonalization with overlap
     ethr =  1.00E-13,  avg # of iterations =  1.0

     total cpu time spent up to now is        6.8 secs

     End of self-consistent calculation

          k = 0.0000 0.0000 0.0000 ( 14009 PWs)   bands (ev):

   -21.6772 -18.3884 -14.1769 -11.7463 -10.6896  -9.0601  -8.6820  -7.1484
    -6.0267

     highest occupied level (ev):    -6.0267

!    total energy              =     -60.24099473 Ry
     estimated scf accuracy    <          4.8E-13 Ry

     The total energy is the sum of the following terms:
     one-electron contribution =    -131.48593731 Ry
     hartree contribution      =      67.71384525 Ry
     xc contribution           =     -19.47916454 Ry
     ewald contribution        =      23.01026187 Ry

     convergence has been achieved in  20 iterations

     Forces acting on atoms (cartesian axes, Ry/au):

     atom    1 type  1   force =     0.00405414    0.00448218   -0.00183059
     atom    2 type  1   force =    -0.00842085   -0.00256426    0.00613846
     atom    3 type  2   force =    -0.01350426    0.00163807    0.01174130
     atom    4 type  2   force =    -0.00076811   -0.01710432   -0.00728463
     atom    5 type  2   force =     0.01549005   -0.00158385   -0.01302224
     atom    6 type  3   force =     0.00314903    0.01513219    0.00425770

     Total force =     0.038642     Total SCF correction =     0.000001

     Writing output data file ./Vynil_chloride.save/

     init_run     :      0.41s CPU      0.44s WALL (       1 calls)
     electrons    :      6.10s CPU      6.29s WALL (       1 calls)
     forces       :      0.26s CPU      0.27s WALL (       1 calls)

     Called by init_run:
     wfcinit      :      0.09s CPU      0.09s WALL (       1 calls)
     potinit      :      0.20s CPU      0.21s WALL (       1 calls)
     hinit0       :      0.10s CPU      0.11s WALL (       1 calls)

     Called by electrons:
     c_bands      :      3.02s CPU      3.06s WALL (      20 calls)
     sum_band     :      0.84s CPU      0.85s WALL (      20 calls)
     v_of_rho     :      1.79s CPU      1.95s WALL (      21 calls)
     mix_rho      :      0.46s CPU      0.47s WALL (      20 calls)

     Called by c_bands:
     init_us_2    :      0.08s CPU      0.08s WALL (      41 calls)
     regterg      :      2.90s CPU      2.93s WALL (      20 calls)

     Called by *egterg:
     rdiaghg      :      0.04s CPU      0.04s WALL (      91 calls)
     h_psi        :      2.63s CPU      2.66s WALL (      92 calls)
     g_psi        :      0.01s CPU      0.01s WALL (      71 calls)

     Called by h_psi:
     h_psi:calbec :      0.28s CPU      0.28s WALL (      92 calls)
     vloc_psi     :      2.15s CPU      2.17s WALL (      92 calls)
     add_vuspsi   :      0.20s CPU      0.20s WALL (      92 calls)

     General routines
     calbec       :      0.29s CPU      0.30s WALL (      96 calls)
     fft          :      1.17s CPU      1.22s WALL (     176 calls)
     ffts         :      0.14s CPU      0.14s WALL (      20 calls)
     fftw         :      2.00s CPU      2.03s WALL (     676 calls)

     Parallel routines

     PWSCF        :      6.88s CPU      7.12s WALL


   This run was terminated on:   7: 2:10  24May2021            

=------------------------------------------------------------------------------=
   JOB DONE.
=------------------------------------------------------------------------------=
