
     Program PWSCF v.6.7GPU starts on 24May2021 at  7: 6:16 

     This program is part of the open-source Quantum ESPRESSO suite
     for quantum simulation of materials; please cite
         "P. Giannozzi et al., J. Phys.:Condens. Matter 21 395502 (2009);
         "P. Giannozzi et al., J. Phys.:Condens. Matter 29 465901 (2017);
         "P. Giannozzi et al., J. Chem. Phys. 152 154105 (2020);
          URL http://www.quantum-espresso.org", 
     in publications or presentations arising from this work. More details at
     http://www.quantum-espresso.org/quote

     Parallel version (MPI), running on     4 processors

     MPI processes distributed on     1 nodes
     R & G space division:  proc/nbgrp/npool/nimage =       4
     Waiting for input...
     Reading input from standard input
     Message from routine read_cards :
     DEPRECATED: no units specified in CELL_PARAMETERS card

     Current dimensions of program PWSCF are:
     Max number of different atomic species (ntypx) = 10
     Max number of k-points (npk) =  40000
     Max angular momentum in pseudopotentials (lmaxx) =  3

     gamma-point specific algorithms are used

     Subspace diagonalization in iterative solution of the eigenvalue problem:
     one sub-group per band group will be used
     scalapack distributed-memory algorithm (size of sub-group:  2*  2 procs)


     Parallelization info
     --------------------
     sticks:   dense  smooth     PW     G-vecs:    dense   smooth      PW
     Min        3022    3022    754               250214   250214   31205
     Max        3024    3024    755               250219   250219   31206
     Sum       12093   12093   3017              1000865  1000865  124823

     Using Slab Decomposition



     bravais-lattice index     =            0
     lattice parameter (alat)  =      20.0000  a.u.
     unit-cell volume          =    8000.0000 (a.u.)^3
     number of atoms/cell      =            6
     number of atomic types    =            3
     number of electrons       =        18.00
     number of Kohn-Sham states=            9
     kinetic-energy cutoff     =      95.0000  Ry
     charge density cutoff     =     380.0000  Ry
     scf convergence threshold =      1.0E-12
     mixing beta               =       0.5000
     number of iterations used =            8  plain     mixing
     Exchange-correlation= PBE
                           (   1   4   3   4   0   0   0)

     celldm(1)=  20.000000  celldm(2)=   0.000000  celldm(3)=   0.000000
     celldm(4)=   0.000000  celldm(5)=   0.000000  celldm(6)=   0.000000

     crystal axes: (cart. coord. in units of alat)
               a(1) = (   1.000000   0.000000   0.000000 )  
               a(2) = (   0.000000   1.000000   0.000000 )  
               a(3) = (   0.000000   0.000000   1.000000 )  

     reciprocal axes: (cart. coord. in units 2 pi/alat)
               b(1) = (  1.000000  0.000000  0.000000 )  
               b(2) = (  0.000000  1.000000  0.000000 )  
               b(3) = (  0.000000  0.000000  1.000000 )  


     PseudoPot. # 1 for C  read from file:
     /home/ciga/builds/pseudo_potentials/C.upf
     MD5 check sum: d80ec9912146af6c4c1760317d1f95e9
     Pseudo is Norm-conserving + core correction, Zval =  4.0
     Generated using ONCVPSP code by D. R. Hamann
     Using radial grid of 1248 points,  4 beta functions with: 
                l(1) =   0
                l(2) =   0
                l(3) =   1
                l(4) =   1

     PseudoPot. # 2 for H  read from file:
     /home/ciga/builds/pseudo_potentials/H.upf
     MD5 check sum: 418cee52d0c413ae40802e6cc37ab9e3
     Pseudo is Norm-conserving, Zval =  1.0
     Generated using ONCVPSP code by D. R. Hamann
     Using radial grid of 1166 points,  3 beta functions with: 
                l(1) =   0
                l(2) =   0
                l(3) =   1

     PseudoPot. # 3 for Cl read from file:
     /home/ciga/builds/pseudo_potentials/Cl.upf
     MD5 check sum: b1ddb435c2952724bdf458cc656d2c80
     Pseudo is Norm-conserving + core correction, Zval =  7.0
     Generated using ONCVPSP code by D. R. Hamann
     Using radial grid of 1028 points,  6 beta functions with: 
                l(1) =   0
                l(2) =   0
                l(3) =   1
                l(4) =   1
                l(5) =   2
                l(6) =   2

     atomic species   valence    mass     pseudopotential
        C              4.00    12.01070     C ( 1.00)
        H              1.00     1.00794     H ( 1.00)
        Cl             7.00    35.45300     Cl( 1.00)

     No symmetry found



   Cartesian axes

     site n.     atom                  positions (alat units)
         1           C   tau(   1) = (  -0.0523705  -0.0420805   0.0104952  )
         2           C   tau(   2) = (   0.0351729   0.0413883  -0.0221608  )
         3           H   tau(   3) = (  -0.1249197  -0.0199142   0.0786069  )
         4           H   tau(   4) = (  -0.0513719  -0.1346662  -0.0321760  )
         5           H   tau(   5) = (   0.1089667   0.0228062  -0.0899078  )
         6           Cl  tau(   6) = (   0.0416146   0.1916906   0.0407987  )

     number of k points=     1
                       cart. coord. in units 2pi/alat
        k(    1) = (   0.0000000   0.0000000   0.0000000), wk =   2.0000000

     Dense  grid:   500433 G-vectors     FFT dimensions: ( 125, 125, 125)

     Estimated max dynamical RAM per process >     121.12 MB

     Estimated total dynamical RAM >     484.46 MB

     Initial potential from superposition of free atoms

     starting charge   17.99988, renormalised to   18.00000

     negative rho (up, down):  9.071E-06 0.000E+00
     Starting wfcs are   15 randomized atomic wfcs

     total cpu time spent up to now is        1.9 secs

     Self-consistent Calculation

     iteration #  1     ecut=    95.00 Ry     beta= 0.50
     Davidson diagonalization with overlap
     ethr =  1.00E-02,  avg # of iterations =  2.0

     negative rho (up, down):  1.408E-07 0.000E+00

     total cpu time spent up to now is        3.6 secs

     total energy              =     -60.26353684 Ry
     estimated scf accuracy    <       0.67097778 Ry

     iteration #  2     ecut=    95.00 Ry     beta= 0.50
     Davidson diagonalization with overlap
     ethr =  3.73E-03,  avg # of iterations =  3.0

     negative rho (up, down):  1.475E-08 0.000E+00

     total cpu time spent up to now is        5.2 secs

     total energy              =     -60.39476978 Ry
     estimated scf accuracy    <       0.07687456 Ry

     iteration #  3     ecut=    95.00 Ry     beta= 0.50
     Davidson diagonalization with overlap
     ethr =  4.27E-04,  avg # of iterations =  2.0

     total cpu time spent up to now is        6.7 secs

     total energy              =     -60.39860472 Ry
     estimated scf accuracy    <       0.01397964 Ry

     iteration #  4     ecut=    95.00 Ry     beta= 0.50
     Davidson diagonalization with overlap
     ethr =  7.77E-05,  avg # of iterations =  4.0

     total cpu time spent up to now is        8.5 secs

     total energy              =     -60.39897400 Ry
     estimated scf accuracy    <       0.00835849 Ry

     iteration #  5     ecut=    95.00 Ry     beta= 0.50
     Davidson diagonalization with overlap
     ethr =  4.64E-05,  avg # of iterations =  5.0

     total cpu time spent up to now is       10.4 secs

     total energy              =     -60.40109303 Ry
     estimated scf accuracy    <       0.01033838 Ry

     iteration #  6     ecut=    95.00 Ry     beta= 0.50
     Davidson diagonalization with overlap
     ethr =  4.64E-05,  avg # of iterations =  5.0

     total cpu time spent up to now is       12.1 secs

     total energy              =     -60.40230418 Ry
     estimated scf accuracy    <       0.00025718 Ry

     iteration #  7     ecut=    95.00 Ry     beta= 0.50
     Davidson diagonalization with overlap
     ethr =  1.43E-06,  avg # of iterations =  3.0

     total cpu time spent up to now is       13.9 secs

     total energy              =     -60.40240532 Ry
     estimated scf accuracy    <       0.00001192 Ry

     iteration #  8     ecut=    95.00 Ry     beta= 0.50
     Davidson diagonalization with overlap
     ethr =  6.62E-08,  avg # of iterations =  6.0

     total cpu time spent up to now is       15.9 secs

     total energy              =     -60.40240661 Ry
     estimated scf accuracy    <       0.00001439 Ry

     iteration #  9     ecut=    95.00 Ry     beta= 0.50
     Davidson diagonalization with overlap
     ethr =  6.62E-08,  avg # of iterations =  4.0

     total cpu time spent up to now is       17.8 secs

     total energy              =     -60.40241124 Ry
     estimated scf accuracy    <       0.00001014 Ry

     iteration # 10     ecut=    95.00 Ry     beta= 0.50
     Davidson diagonalization with overlap
     ethr =  5.63E-08,  avg # of iterations =  2.0

     total cpu time spent up to now is       19.3 secs

     total energy              =     -60.40241164 Ry
     estimated scf accuracy    <       0.00000141 Ry

     iteration # 11     ecut=    95.00 Ry     beta= 0.50
     Davidson diagonalization with overlap
     ethr =  7.81E-09,  avg # of iterations =  5.0

     total cpu time spent up to now is       21.1 secs

     total energy              =     -60.40241231 Ry
     estimated scf accuracy    <       0.00000018 Ry

     iteration # 12     ecut=    95.00 Ry     beta= 0.50
     Davidson diagonalization with overlap
     ethr =  1.01E-09,  avg # of iterations =  2.0

     total cpu time spent up to now is       22.6 secs

     total energy              =     -60.40241228 Ry
     estimated scf accuracy    <       0.00000010 Ry

     iteration # 13     ecut=    95.00 Ry     beta= 0.50
     Davidson diagonalization with overlap
     ethr =  5.47E-10,  avg # of iterations =  5.0

     total cpu time spent up to now is       24.4 secs

     total energy              =     -60.40241230 Ry
     estimated scf accuracy    <          1.2E-09 Ry

     iteration # 14     ecut=    95.00 Ry     beta= 0.50
     Davidson diagonalization with overlap
     ethr =  6.51E-12,  avg # of iterations =  5.0

     total cpu time spent up to now is       26.4 secs

     total energy              =     -60.40241230 Ry
     estimated scf accuracy    <          6.8E-10 Ry

     iteration # 15     ecut=    95.00 Ry     beta= 0.50
     Davidson diagonalization with overlap
     ethr =  3.75E-12,  avg # of iterations =  1.0

     total cpu time spent up to now is       27.9 secs

     total energy              =     -60.40241230 Ry
     estimated scf accuracy    <          4.8E-10 Ry

     iteration # 16     ecut=    95.00 Ry     beta= 0.50
     Davidson diagonalization with overlap
     ethr =  2.66E-12,  avg # of iterations =  5.0

     total cpu time spent up to now is       29.6 secs

     total energy              =     -60.40241230 Ry
     estimated scf accuracy    <          1.1E-11 Ry

     iteration # 17     ecut=    95.00 Ry     beta= 0.50
     Davidson diagonalization with overlap
     ethr =  1.00E-13,  avg # of iterations =  3.0

     total cpu time spent up to now is       31.5 secs

     total energy              =     -60.40241230 Ry
     estimated scf accuracy    <          2.7E-11 Ry

     iteration # 18     ecut=    95.00 Ry     beta= 0.50
     Davidson diagonalization with overlap
     ethr =  1.00E-13,  avg # of iterations =  1.0

     total cpu time spent up to now is       33.0 secs

     total energy              =     -60.40241230 Ry
     estimated scf accuracy    <          1.5E-11 Ry

     iteration # 19     ecut=    95.00 Ry     beta= 0.50
     Davidson diagonalization with overlap
     ethr =  1.00E-13,  avg # of iterations =  5.0

     total cpu time spent up to now is       34.5 secs

     End of self-consistent calculation

          k = 0.0000 0.0000 0.0000 ( 62412 PWs)   bands (ev):

   -21.6198 -18.2750 -14.1057 -11.7421 -10.7123  -9.0703  -8.6831  -7.1520
    -6.0469

     highest occupied level (ev):    -6.0469

!    total energy              =     -60.40241230 Ry
     estimated scf accuracy    <          5.6E-13 Ry

     The total energy is the sum of the following terms:
     one-electron contribution =    -131.77447650 Ry
     hartree contribution      =      67.89318020 Ry
     xc contribution           =     -19.53137788 Ry
     ewald contribution        =      23.01026187 Ry

     convergence has been achieved in  19 iterations

     Forces acting on atoms (cartesian axes, Ry/au):

     atom    1 type  1   force =     0.00172688    0.00173540   -0.00098188
     atom    2 type  1   force =    -0.00470067    0.00138839    0.00458815
     atom    3 type  2   force =    -0.00855006    0.00045962    0.00731400
     atom    4 type  2   force =    -0.00092582   -0.01130990   -0.00439213
     atom    5 type  2   force =     0.00983966   -0.00080459   -0.00821787
     atom    6 type  3   force =     0.00261001    0.00853108    0.00168974

     Total force =     0.023966     Total SCF correction =     0.000001

     Writing output data file ./Vynil_chloride.save/

     init_run     :      1.65s CPU      1.79s WALL (       1 calls)
     electrons    :     31.90s CPU     32.69s WALL (       1 calls)
     forces       :      1.07s CPU      1.11s WALL (       1 calls)

     Called by init_run:
     wfcinit      :      0.46s CPU      0.48s WALL (       1 calls)
     potinit      :      0.68s CPU      0.76s WALL (       1 calls)
     hinit0       :      0.30s CPU      0.32s WALL (       1 calls)

     Called by electrons:
     c_bands      :     16.47s CPU     16.60s WALL (      19 calls)
     sum_band     :      4.37s CPU      4.39s WALL (      19 calls)
     v_of_rho     :      8.46s CPU      9.13s WALL (      20 calls)
     mix_rho      :      2.75s CPU      2.77s WALL (      19 calls)

     Called by c_bands:
     init_us_2    :      0.34s CPU      0.35s WALL (      39 calls)
     regterg      :     15.99s CPU     16.12s WALL (      19 calls)

     Called by *egterg:
     rdiaghg      :      0.04s CPU      0.05s WALL (      87 calls)
     h_psi        :     14.61s CPU     14.73s WALL (      88 calls)
     g_psi        :      0.03s CPU      0.03s WALL (      68 calls)

     Called by h_psi:
     h_psi:calbec :      1.12s CPU      1.12s WALL (      88 calls)
     vloc_psi     :     12.51s CPU     12.62s WALL (      88 calls)
     add_vuspsi   :      0.89s CPU      0.90s WALL (      88 calls)

     General routines
     calbec       :      1.19s CPU      1.20s WALL (      92 calls)
     fft          :      6.13s CPU      6.26s WALL (     168 calls)
     ffts         :      0.69s CPU      0.70s WALL (      19 calls)
     fftw         :     11.92s CPU     12.02s WALL (     657 calls)

     Parallel routines

     PWSCF        :     34.72s CPU     35.75s WALL


   This run was terminated on:   7: 6:52  24May2021            

=------------------------------------------------------------------------------=
   JOB DONE.
=------------------------------------------------------------------------------=
