
     Program PWSCF v.6.7GPU starts on 24May2021 at  4:40:43 

     This program is part of the open-source Quantum ESPRESSO suite
     for quantum simulation of materials; please cite
         "P. Giannozzi et al., J. Phys.:Condens. Matter 21 395502 (2009);
         "P. Giannozzi et al., J. Phys.:Condens. Matter 29 465901 (2017);
         "P. Giannozzi et al., J. Chem. Phys. 152 154105 (2020);
          URL http://www.quantum-espresso.org", 
     in publications or presentations arising from this work. More details at
     http://www.quantum-espresso.org/quote

     Parallel version (MPI), running on     4 processors

     MPI processes distributed on     1 nodes
     R & G space division:  proc/nbgrp/npool/nimage =       4
     Waiting for input...
     Reading input from standard input
     Message from routine read_cards :
     DEPRECATED: no units specified in CELL_PARAMETERS card

     Current dimensions of program PWSCF are:
     Max number of different atomic species (ntypx) = 10
     Max number of k-points (npk) =  40000
     Max angular momentum in pseudopotentials (lmaxx) =  3

     gamma-point specific algorithms are used

     Subspace diagonalization in iterative solution of the eigenvalue problem:
     one sub-group per band group will be used
     scalapack distributed-memory algorithm (size of sub-group:  2*  2 procs)


     Parallelization info
     --------------------
     sticks:   dense  smooth     PW     G-vecs:    dense   smooth      PW
     Min        2230    2230    557               158211   158211   19778
     Max        2234    2234    560               158214   158214   19781
     Sum        8929    8929   2233               632851   632851   79117

     Using Slab Decomposition



     bravais-lattice index     =            0
     lattice parameter (alat)  =      20.0000  a.u.
     unit-cell volume          =    8000.0000 (a.u.)^3
     number of atoms/cell      =            6
     number of atomic types    =            3
     number of electrons       =        18.00
     number of Kohn-Sham states=            9
     kinetic-energy cutoff     =      70.0000  Ry
     charge density cutoff     =     280.0000  Ry
     scf convergence threshold =      1.0E-12
     mixing beta               =       0.5000
     number of iterations used =            8  plain     mixing
     Exchange-correlation= PBE
                           (   1   4   3   4   0   0   0)

     celldm(1)=  20.000000  celldm(2)=   0.000000  celldm(3)=   0.000000
     celldm(4)=   0.000000  celldm(5)=   0.000000  celldm(6)=   0.000000

     crystal axes: (cart. coord. in units of alat)
               a(1) = (   1.000000   0.000000   0.000000 )  
               a(2) = (   0.000000   1.000000   0.000000 )  
               a(3) = (   0.000000   0.000000   1.000000 )  

     reciprocal axes: (cart. coord. in units 2 pi/alat)
               b(1) = (  1.000000  0.000000  0.000000 )  
               b(2) = (  0.000000  1.000000  0.000000 )  
               b(3) = (  0.000000  0.000000  1.000000 )  


     PseudoPot. # 1 for Br read from file:
     /home/ciga/builds/pseudo_potentials/Br.upf
     MD5 check sum: 41f672ce76ec6f6480a05aabe46aac99
     Pseudo is Norm-conserving + core correction, Zval =  7.0
     Generated using ONCVPSP code by D. R. Hamann
     Using radial grid of 1110 points,  6 beta functions with: 
                l(1) =   0
                l(2) =   0
                l(3) =   1
                l(4) =   1
                l(5) =   2
                l(6) =   2

     PseudoPot. # 2 for C  read from file:
     /home/ciga/builds/pseudo_potentials/C.upf
     MD5 check sum: d80ec9912146af6c4c1760317d1f95e9
     Pseudo is Norm-conserving + core correction, Zval =  4.0
     Generated using ONCVPSP code by D. R. Hamann
     Using radial grid of 1248 points,  4 beta functions with: 
                l(1) =   0
                l(2) =   0
                l(3) =   1
                l(4) =   1

     PseudoPot. # 3 for H  read from file:
     /home/ciga/builds/pseudo_potentials/H.upf
     MD5 check sum: 418cee52d0c413ae40802e6cc37ab9e3
     Pseudo is Norm-conserving, Zval =  1.0
     Generated using ONCVPSP code by D. R. Hamann
     Using radial grid of 1166 points,  3 beta functions with: 
                l(1) =   0
                l(2) =   0
                l(3) =   1

     atomic species   valence    mass     pseudopotential
        Br             7.00    79.90400     Br( 1.00)
        C              4.00    12.01070     C ( 1.00)
        H              1.00     1.00794     H ( 1.00)

     No symmetry found



   Cartesian axes

     site n.     atom                  positions (alat units)
         1           Br  tau(   1) = (   0.5673411   0.4251563   0.5794864  )
         2           C   tau(   2) = (   0.4177051   0.4251884   0.3580370  )
         3           C   tau(   3) = (   0.4177051   0.4251884   0.4832880  )
         4           H   tau(   4) = (   0.3285733   0.4253320   0.3078893  )
         5           H   tau(   5) = (   0.3331493   0.4251884   0.5401281  )
         6           H   tau(   6) = (   0.5035355   0.4251884   0.3031404  )

     number of k points=     1
                       cart. coord. in units 2pi/alat
        k(    1) = (   0.0000000   0.0000000   0.0000000), wk =   2.0000000

     Dense  grid:   316426 G-vectors     FFT dimensions: ( 108, 108, 108)

     Estimated max dynamical RAM per process >      77.57 MB

     Estimated total dynamical RAM >     310.26 MB

     Initial potential from superposition of free atoms

     starting charge   17.99986, renormalised to   18.00000

     negative rho (up, down):  1.344E-04 0.000E+00
     Starting wfcs are   15 randomized atomic wfcs

     total cpu time spent up to now is        1.3 secs

     Self-consistent Calculation

     iteration #  1     ecut=    70.00 Ry     beta= 0.50
     Davidson diagonalization with overlap
     ethr =  1.00E-02,  avg # of iterations =  2.0

     negative rho (up, down):  3.446E-05 0.000E+00

     total cpu time spent up to now is        2.4 secs

     total energy              =     -58.88158642 Ry
     estimated scf accuracy    <       0.70936033 Ry

     iteration #  2     ecut=    70.00 Ry     beta= 0.50
     Davidson diagonalization with overlap
     ethr =  3.94E-03,  avg # of iterations =  3.0

     negative rho (up, down):  1.242E-05 0.000E+00

     total cpu time spent up to now is        3.5 secs

     total energy              =     -59.03237205 Ry
     estimated scf accuracy    <       0.07571705 Ry

     iteration #  3     ecut=    70.00 Ry     beta= 0.50
     Davidson diagonalization with overlap
     ethr =  4.21E-04,  avg # of iterations =  2.0

     negative rho (up, down):  2.549E-06 0.000E+00

     total cpu time spent up to now is        4.6 secs

     total energy              =     -59.03527217 Ry
     estimated scf accuracy    <       0.01531165 Ry

     iteration #  4     ecut=    70.00 Ry     beta= 0.50
     Davidson diagonalization with overlap
     ethr =  8.51E-05,  avg # of iterations =  4.0

     negative rho (up, down):  5.106E-07 0.000E+00

     total cpu time spent up to now is        5.8 secs

     total energy              =     -59.03632313 Ry
     estimated scf accuracy    <       0.00728298 Ry

     iteration #  5     ecut=    70.00 Ry     beta= 0.50
     Davidson diagonalization with overlap
     ethr =  4.05E-05,  avg # of iterations =  5.0

     negative rho (up, down):  1.497E-07 0.000E+00

     total cpu time spent up to now is        7.0 secs

     total energy              =     -59.03832761 Ry
     estimated scf accuracy    <       0.00799628 Ry

     iteration #  6     ecut=    70.00 Ry     beta= 0.50
     Davidson diagonalization with overlap
     ethr =  4.05E-05,  avg # of iterations =  3.0

     negative rho (up, down):  1.863E-08 0.000E+00

     total cpu time spent up to now is        8.1 secs

     total energy              =     -59.03880560 Ry
     estimated scf accuracy    <       0.00081243 Ry

     iteration #  7     ecut=    70.00 Ry     beta= 0.50
     Davidson diagonalization with overlap
     ethr =  4.51E-06,  avg # of iterations =  7.0

     negative rho (up, down):  1.253E-08 0.000E+00

     total cpu time spent up to now is        9.4 secs

     total energy              =     -59.03921980 Ry
     estimated scf accuracy    <       0.00041217 Ry

     iteration #  8     ecut=    70.00 Ry     beta= 0.50
     Davidson diagonalization with overlap
     ethr =  2.29E-06,  avg # of iterations =  3.0

     total cpu time spent up to now is       10.5 secs

     total energy              =     -59.03925038 Ry
     estimated scf accuracy    <       0.00003702 Ry

     iteration #  9     ecut=    70.00 Ry     beta= 0.50
     Davidson diagonalization with overlap
     ethr =  2.06E-07,  avg # of iterations =  6.0

     total cpu time spent up to now is       11.8 secs

     total energy              =     -59.03927093 Ry
     estimated scf accuracy    <       0.00001509 Ry

     iteration # 10     ecut=    70.00 Ry     beta= 0.50
     Davidson diagonalization with overlap
     ethr =  8.39E-08,  avg # of iterations =  2.0

     total cpu time spent up to now is       12.9 secs

     total energy              =     -59.03927025 Ry
     estimated scf accuracy    <       0.00000372 Ry

     iteration # 11     ecut=    70.00 Ry     beta= 0.50
     Davidson diagonalization with overlap
     ethr =  2.07E-08,  avg # of iterations =  4.0

     total cpu time spent up to now is       14.1 secs

     total energy              =     -59.03927159 Ry
     estimated scf accuracy    <       0.00000028 Ry

     iteration # 12     ecut=    70.00 Ry     beta= 0.50
     Davidson diagonalization with overlap
     ethr =  1.54E-09,  avg # of iterations =  2.0

     total cpu time spent up to now is       15.1 secs

     total energy              =     -59.03927152 Ry
     estimated scf accuracy    <       0.00000015 Ry

     iteration # 13     ecut=    70.00 Ry     beta= 0.50
     Davidson diagonalization with overlap
     ethr =  8.26E-10,  avg # of iterations =  3.0

     total cpu time spent up to now is       16.3 secs

     total energy              =     -59.03927157 Ry
     estimated scf accuracy    <       0.00000002 Ry

     iteration # 14     ecut=    70.00 Ry     beta= 0.50
     Davidson diagonalization with overlap
     ethr =  9.22E-11,  avg # of iterations =  2.0

     total cpu time spent up to now is       17.3 secs

     total energy              =     -59.03927157 Ry
     estimated scf accuracy    <          1.0E-08 Ry

     iteration # 15     ecut=    70.00 Ry     beta= 0.50
     Davidson diagonalization with overlap
     ethr =  5.55E-11,  avg # of iterations =  4.0

     total cpu time spent up to now is       18.6 secs

     total energy              =     -59.03927157 Ry
     estimated scf accuracy    <          1.0E-09 Ry

     iteration # 16     ecut=    70.00 Ry     beta= 0.50
     Davidson diagonalization with overlap
     ethr =  5.54E-12,  avg # of iterations =  2.0

     total cpu time spent up to now is       19.6 secs

     total energy              =     -59.03927157 Ry
     estimated scf accuracy    <          2.5E-10 Ry

     iteration # 17     ecut=    70.00 Ry     beta= 0.50
     Davidson diagonalization with overlap
     ethr =  1.39E-12,  avg # of iterations =  6.0

     total cpu time spent up to now is       21.0 secs

     total energy              =     -59.03927157 Ry
     estimated scf accuracy    <          5.5E-10 Ry

     iteration # 18     ecut=    70.00 Ry     beta= 0.50
     Davidson diagonalization with overlap
     ethr =  1.39E-12,  avg # of iterations =  1.0

     total cpu time spent up to now is       22.0 secs

     total energy              =     -59.03927157 Ry
     estimated scf accuracy    <          4.4E-10 Ry

     iteration # 19     ecut=    70.00 Ry     beta= 0.50
     Davidson diagonalization with overlap
     ethr =  1.39E-12,  avg # of iterations =  3.0

     total cpu time spent up to now is       23.1 secs

     total energy              =     -59.03927157 Ry
     estimated scf accuracy    <          9.3E-12 Ry

     iteration # 20     ecut=    70.00 Ry     beta= 0.50
     Davidson diagonalization with overlap
     ethr =  1.00E-13,  avg # of iterations =  5.0

     total cpu time spent up to now is       24.4 secs

     total energy              =     -59.03927157 Ry
     estimated scf accuracy    <          5.1E-12 Ry

     iteration # 21     ecut=    70.00 Ry     beta= 0.50
     Davidson diagonalization with overlap
     ethr =  1.00E-13,  avg # of iterations =  1.0

     total cpu time spent up to now is       25.2 secs

     End of self-consistent calculation

          k = 0.0000 0.0000 0.0000 ( 39559 PWs)   bands (ev):

   -20.7395 -18.2088 -14.0151 -11.4870 -10.4741  -8.6842  -8.0587  -6.5859
    -5.8699

     highest occupied level (ev):    -5.8699

!    total energy              =     -59.03927157 Ry
     estimated scf accuracy    <          7.5E-13 Ry

     The total energy is the sum of the following terms:
     one-electron contribution =    -121.62891057 Ry
     hartree contribution      =      62.76640948 Ry
     xc contribution           =     -20.90939087 Ry
     ewald contribution        =      20.73262039 Ry

     convergence has been achieved in  21 iterations

     Forces acting on atoms (cartesian axes, Ry/au):

     atom    1 type  1   force =     0.00841230   -0.00003321    0.00877239
     atom    2 type  2   force =    -0.00331239    0.00016049    0.00239515
     atom    3 type  2   force =     0.00120810   -0.00005143   -0.00878048
     atom    4 type  3   force =    -0.00825890   -0.00009472   -0.00458173
     atom    5 type  3   force =    -0.00836844    0.00003853    0.00921094
     atom    6 type  3   force =     0.01031933   -0.00001966   -0.00701626

     Total force =     0.025354     Total SCF correction =     0.000001

     Writing output data file ./Vynil_bromide.save/

     init_run     :      1.14s CPU      1.23s WALL (       1 calls)
     electrons    :     23.43s CPU     23.93s WALL (       1 calls)
     forces       :      0.71s CPU      0.74s WALL (       1 calls)

     Called by init_run:
     wfcinit      :      0.31s CPU      0.32s WALL (       1 calls)
     potinit      :      0.48s CPU      0.53s WALL (       1 calls)
     hinit0       :      0.23s CPU      0.25s WALL (       1 calls)

     Called by electrons:
     c_bands      :     12.00s CPU     12.07s WALL (      21 calls)
     sum_band     :      3.29s CPU      3.31s WALL (      21 calls)
     v_of_rho     :      6.17s CPU      6.61s WALL (      22 calls)
     mix_rho      :      2.01s CPU      2.02s WALL (      21 calls)

     Called by c_bands:
     init_us_2    :      0.23s CPU      0.24s WALL (      43 calls)
     regterg      :     11.66s CPU     11.73s WALL (      21 calls)

     Called by *egterg:
     rdiaghg      :      0.05s CPU      0.05s WALL (      91 calls)
     h_psi        :     10.77s CPU     10.84s WALL (      92 calls)
     g_psi        :      0.02s CPU      0.02s WALL (      70 calls)

     Called by h_psi:
     h_psi:calbec :      0.80s CPU      0.80s WALL (      92 calls)
     vloc_psi     :      9.29s CPU      9.36s WALL (      92 calls)
     add_vuspsi   :      0.63s CPU      0.63s WALL (      92 calls)

     General routines
     calbec       :      0.85s CPU      0.85s WALL (      96 calls)
     fft          :      4.96s CPU      5.09s WALL (     184 calls)
     ffts         :      0.54s CPU      0.55s WALL (      21 calls)
     fftw         :      9.11s CPU      9.16s WALL (     709 calls)

     Parallel routines

     PWSCF        :     25.40s CPU     26.04s WALL


   This run was terminated on:   4:41: 9  24May2021            

=------------------------------------------------------------------------------=
   JOB DONE.
=------------------------------------------------------------------------------=
