
     Program PWSCF v.6.7GPU starts on 24May2021 at  7: 5:43 

     This program is part of the open-source Quantum ESPRESSO suite
     for quantum simulation of materials; please cite
         "P. Giannozzi et al., J. Phys.:Condens. Matter 21 395502 (2009);
         "P. Giannozzi et al., J. Phys.:Condens. Matter 29 465901 (2017);
         "P. Giannozzi et al., J. Chem. Phys. 152 154105 (2020);
          URL http://www.quantum-espresso.org", 
     in publications or presentations arising from this work. More details at
     http://www.quantum-espresso.org/quote

     Parallel version (MPI), running on     4 processors

     MPI processes distributed on     1 nodes
     R & G space division:  proc/nbgrp/npool/nimage =       4
     Waiting for input...
     Reading input from standard input
     Message from routine read_cards :
     DEPRECATED: no units specified in CELL_PARAMETERS card

     Current dimensions of program PWSCF are:
     Max number of different atomic species (ntypx) = 10
     Max number of k-points (npk) =  40000
     Max angular momentum in pseudopotentials (lmaxx) =  3

     gamma-point specific algorithms are used

     Subspace diagonalization in iterative solution of the eigenvalue problem:
     one sub-group per band group will be used
     scalapack distributed-memory algorithm (size of sub-group:  2*  2 procs)


     Parallelization info
     --------------------
     sticks:   dense  smooth     PW     G-vecs:    dense   smooth      PW
     Min        2862    2862    716               230578   230578   28824
     Max        2863    2863    718               230586   230586   28830
     Sum       11449   11449   2869               922329   922329  115313

     Using Slab Decomposition



     bravais-lattice index     =            0
     lattice parameter (alat)  =      20.0000  a.u.
     unit-cell volume          =    8000.0000 (a.u.)^3
     number of atoms/cell      =            6
     number of atomic types    =            3
     number of electrons       =        18.00
     number of Kohn-Sham states=            9
     kinetic-energy cutoff     =      90.0000  Ry
     charge density cutoff     =     360.0000  Ry
     scf convergence threshold =      1.0E-12
     mixing beta               =       0.5000
     number of iterations used =            8  plain     mixing
     Exchange-correlation= PBE
                           (   1   4   3   4   0   0   0)

     celldm(1)=  20.000000  celldm(2)=   0.000000  celldm(3)=   0.000000
     celldm(4)=   0.000000  celldm(5)=   0.000000  celldm(6)=   0.000000

     crystal axes: (cart. coord. in units of alat)
               a(1) = (   1.000000   0.000000   0.000000 )  
               a(2) = (   0.000000   1.000000   0.000000 )  
               a(3) = (   0.000000   0.000000   1.000000 )  

     reciprocal axes: (cart. coord. in units 2 pi/alat)
               b(1) = (  1.000000  0.000000  0.000000 )  
               b(2) = (  0.000000  1.000000  0.000000 )  
               b(3) = (  0.000000  0.000000  1.000000 )  


     PseudoPot. # 1 for C  read from file:
     /home/ciga/builds/pseudo_potentials/C.upf
     MD5 check sum: d80ec9912146af6c4c1760317d1f95e9
     Pseudo is Norm-conserving + core correction, Zval =  4.0
     Generated using ONCVPSP code by D. R. Hamann
     Using radial grid of 1248 points,  4 beta functions with: 
                l(1) =   0
                l(2) =   0
                l(3) =   1
                l(4) =   1

     PseudoPot. # 2 for H  read from file:
     /home/ciga/builds/pseudo_potentials/H.upf
     MD5 check sum: 418cee52d0c413ae40802e6cc37ab9e3
     Pseudo is Norm-conserving, Zval =  1.0
     Generated using ONCVPSP code by D. R. Hamann
     Using radial grid of 1166 points,  3 beta functions with: 
                l(1) =   0
                l(2) =   0
                l(3) =   1

     PseudoPot. # 3 for Cl read from file:
     /home/ciga/builds/pseudo_potentials/Cl.upf
     MD5 check sum: b1ddb435c2952724bdf458cc656d2c80
     Pseudo is Norm-conserving + core correction, Zval =  7.0
     Generated using ONCVPSP code by D. R. Hamann
     Using radial grid of 1028 points,  6 beta functions with: 
                l(1) =   0
                l(2) =   0
                l(3) =   1
                l(4) =   1
                l(5) =   2
                l(6) =   2

     atomic species   valence    mass     pseudopotential
        C              4.00    12.01070     C ( 1.00)
        H              1.00     1.00794     H ( 1.00)
        Cl             7.00    35.45300     Cl( 1.00)

     No symmetry found



   Cartesian axes

     site n.     atom                  positions (alat units)
         1           C   tau(   1) = (  -0.0523705  -0.0420805   0.0104952  )
         2           C   tau(   2) = (   0.0351729   0.0413883  -0.0221608  )
         3           H   tau(   3) = (  -0.1249197  -0.0199142   0.0786069  )
         4           H   tau(   4) = (  -0.0513719  -0.1346662  -0.0321760  )
         5           H   tau(   5) = (   0.1089667   0.0228062  -0.0899078  )
         6           Cl  tau(   6) = (   0.0416146   0.1916906   0.0407987  )

     number of k points=     1
                       cart. coord. in units 2pi/alat
        k(    1) = (   0.0000000   0.0000000   0.0000000), wk =   2.0000000

     Dense  grid:   461165 G-vectors     FFT dimensions: ( 125, 125, 125)

     Estimated max dynamical RAM per process >     114.56 MB

     Estimated total dynamical RAM >     458.24 MB

     Initial potential from superposition of free atoms

     starting charge   17.99988, renormalised to   18.00000

     negative rho (up, down):  2.536E-05 0.000E+00
     Starting wfcs are   15 randomized atomic wfcs

     total cpu time spent up to now is        1.8 secs

     Self-consistent Calculation

     iteration #  1     ecut=    90.00 Ry     beta= 0.50
     Davidson diagonalization with overlap
     ethr =  1.00E-02,  avg # of iterations =  2.0

     negative rho (up, down):  1.898E-06 0.000E+00

     total cpu time spent up to now is        3.4 secs

     total energy              =     -60.26273265 Ry
     estimated scf accuracy    <       0.67219054 Ry

     iteration #  2     ecut=    90.00 Ry     beta= 0.50
     Davidson diagonalization with overlap
     ethr =  3.73E-03,  avg # of iterations =  3.0

     negative rho (up, down):  3.007E-07 0.000E+00

     total cpu time spent up to now is        5.0 secs

     total energy              =     -60.39449942 Ry
     estimated scf accuracy    <       0.07788844 Ry

     iteration #  3     ecut=    90.00 Ry     beta= 0.50
     Davidson diagonalization with overlap
     ethr =  4.33E-04,  avg # of iterations =  2.0

     negative rho (up, down):  4.468E-08 0.000E+00

     total cpu time spent up to now is        6.5 secs

     total energy              =     -60.39853384 Ry
     estimated scf accuracy    <       0.01406603 Ry

     iteration #  4     ecut=    90.00 Ry     beta= 0.50
     Davidson diagonalization with overlap
     ethr =  7.81E-05,  avg # of iterations =  4.0

     total cpu time spent up to now is        8.2 secs

     total energy              =     -60.39895608 Ry
     estimated scf accuracy    <       0.00843744 Ry

     iteration #  5     ecut=    90.00 Ry     beta= 0.50
     Davidson diagonalization with overlap
     ethr =  4.69E-05,  avg # of iterations =  5.0

     total cpu time spent up to now is       10.0 secs

     total energy              =     -60.40107856 Ry
     estimated scf accuracy    <       0.01018985 Ry

     iteration #  6     ecut=    90.00 Ry     beta= 0.50
     Davidson diagonalization with overlap
     ethr =  4.69E-05,  avg # of iterations =  5.0

     total cpu time spent up to now is       11.6 secs

     total energy              =     -60.40229455 Ry
     estimated scf accuracy    <       0.00024048 Ry

     iteration #  7     ecut=    90.00 Ry     beta= 0.50
     Davidson diagonalization with overlap
     ethr =  1.34E-06,  avg # of iterations =  5.0

     total cpu time spent up to now is       13.4 secs

     total energy              =     -60.40240237 Ry
     estimated scf accuracy    <       0.00001621 Ry

     iteration #  8     ecut=    90.00 Ry     beta= 0.50
     Davidson diagonalization with overlap
     ethr =  9.01E-08,  avg # of iterations =  3.0

     total cpu time spent up to now is       15.1 secs

     total energy              =     -60.40240470 Ry
     estimated scf accuracy    <       0.00000262 Ry

     iteration #  9     ecut=    90.00 Ry     beta= 0.50
     Davidson diagonalization with overlap
     ethr =  1.45E-08,  avg # of iterations =  5.0

     total cpu time spent up to now is       17.0 secs

     total energy              =     -60.40240529 Ry
     estimated scf accuracy    <       0.00000151 Ry

     iteration # 10     ecut=    90.00 Ry     beta= 0.50
     Davidson diagonalization with overlap
     ethr =  8.41E-09,  avg # of iterations =  2.0

     total cpu time spent up to now is       18.5 secs

     total energy              =     -60.40240525 Ry
     estimated scf accuracy    <       0.00000033 Ry

     iteration # 11     ecut=    90.00 Ry     beta= 0.50
     Davidson diagonalization with overlap
     ethr =  1.81E-09,  avg # of iterations =  5.0

     total cpu time spent up to now is       20.3 secs

     total energy              =     -60.40240541 Ry
     estimated scf accuracy    <       0.00000018 Ry

     iteration # 12     ecut=    90.00 Ry     beta= 0.50
     Davidson diagonalization with overlap
     ethr =  9.75E-10,  avg # of iterations =  2.0

     total cpu time spent up to now is       21.8 secs

     total energy              =     -60.40240540 Ry
     estimated scf accuracy    <       0.00000004 Ry

     iteration # 13     ecut=    90.00 Ry     beta= 0.50
     Davidson diagonalization with overlap
     ethr =  2.30E-10,  avg # of iterations =  5.0

     total cpu time spent up to now is       23.6 secs

     total energy              =     -60.40240542 Ry
     estimated scf accuracy    <       0.00000001 Ry

     iteration # 14     ecut=    90.00 Ry     beta= 0.50
     Davidson diagonalization with overlap
     ethr =  6.43E-11,  avg # of iterations =  2.0

     total cpu time spent up to now is       25.1 secs

     total energy              =     -60.40240542 Ry
     estimated scf accuracy    <          3.5E-09 Ry

     iteration # 15     ecut=    90.00 Ry     beta= 0.50
     Davidson diagonalization with overlap
     ethr =  1.93E-11,  avg # of iterations =  5.0

     total cpu time spent up to now is       26.8 secs

     total energy              =     -60.40240542 Ry
     estimated scf accuracy    <          1.8E-11 Ry

     iteration # 16     ecut=    90.00 Ry     beta= 0.50
     Davidson diagonalization with overlap
     ethr =  1.00E-13,  avg # of iterations =  6.0

     total cpu time spent up to now is       29.1 secs

     total energy              =     -60.40240542 Ry
     estimated scf accuracy    <          1.1E-10 Ry

     iteration # 17     ecut=    90.00 Ry     beta= 0.50
     Davidson diagonalization with overlap
     ethr =  1.00E-13,  avg # of iterations =  6.0

     total cpu time spent up to now is       31.2 secs

     total energy              =     -60.40240542 Ry
     estimated scf accuracy    <          9.3E-12 Ry

     iteration # 18     ecut=    90.00 Ry     beta= 0.50
     Davidson diagonalization with overlap
     ethr =  1.00E-13,  avg # of iterations =  2.0

     total cpu time spent up to now is       32.5 secs

     End of self-consistent calculation

          k = 0.0000 0.0000 0.0000 ( 57657 PWs)   bands (ev):

   -21.6198 -18.2750 -14.1057 -11.7421 -10.7123  -9.0703  -8.6832  -7.1520
    -6.0469

     highest occupied level (ev):    -6.0469

!    total energy              =     -60.40240542 Ry
     estimated scf accuracy    <          8.5E-13 Ry

     The total energy is the sum of the following terms:
     one-electron contribution =    -131.77446853 Ry
     hartree contribution      =      67.89317561 Ry
     xc contribution           =     -19.53137437 Ry
     ewald contribution        =      23.01026187 Ry

     convergence has been achieved in  18 iterations

     Forces acting on atoms (cartesian axes, Ry/au):

     atom    1 type  1   force =     0.00172790    0.00173639   -0.00098225
     atom    2 type  1   force =    -0.00470161    0.00138914    0.00458904
     atom    3 type  2   force =    -0.00855159    0.00045992    0.00731539
     atom    4 type  2   force =    -0.00092590   -0.01131201   -0.00439297
     atom    5 type  2   force =     0.00984110   -0.00080492   -0.00821912
     atom    6 type  3   force =     0.00261010    0.00853148    0.00168991

     Total force =     0.023969     Total SCF correction =     0.000001

     Writing output data file ./Vynil_chloride.save/

     init_run     :      1.58s CPU      1.72s WALL (       1 calls)
     electrons    :     30.07s CPU     30.74s WALL (       1 calls)
     forces       :      1.00s CPU      1.05s WALL (       1 calls)

     Called by init_run:
     wfcinit      :      0.45s CPU      0.46s WALL (       1 calls)
     potinit      :      0.66s CPU      0.74s WALL (       1 calls)
     hinit0       :      0.29s CPU      0.31s WALL (       1 calls)

     Called by electrons:
     c_bands      :     15.94s CPU     16.05s WALL (      18 calls)
     sum_band     :      4.00s CPU      4.03s WALL (      18 calls)
     v_of_rho     :      7.92s CPU      8.43s WALL (      19 calls)
     mix_rho      :      2.39s CPU      2.44s WALL (      18 calls)

     Called by c_bands:
     init_us_2    :      0.30s CPU      0.30s WALL (      37 calls)
     regterg      :     15.52s CPU     15.64s WALL (      18 calls)

     Called by *egterg:
     rdiaghg      :      0.04s CPU      0.04s WALL (      87 calls)
     h_psi        :     14.21s CPU     14.33s WALL (      88 calls)
     g_psi        :      0.03s CPU      0.03s WALL (      69 calls)

     Called by h_psi:
     h_psi:calbec :      1.02s CPU      1.02s WALL (      88 calls)
     vloc_psi     :     12.28s CPU     12.39s WALL (      88 calls)
     add_vuspsi   :      0.83s CPU      0.83s WALL (      88 calls)

     General routines
     calbec       :      1.09s CPU      1.10s WALL (      92 calls)
     fft          :      5.63s CPU      5.75s WALL (     160 calls)
     ffts         :      0.64s CPU      0.64s WALL (      18 calls)
     fftw         :     11.62s CPU     11.71s WALL (     654 calls)

     Parallel routines

     PWSCF        :     32.78s CPU     33.66s WALL


   This run was terminated on:   7: 6:16  24May2021            

=------------------------------------------------------------------------------=
   JOB DONE.
=------------------------------------------------------------------------------=
