
     Program PWSCF v.6.7GPU starts on 24May2021 at  4:39:17 

     This program is part of the open-source Quantum ESPRESSO suite
     for quantum simulation of materials; please cite
         "P. Giannozzi et al., J. Phys.:Condens. Matter 21 395502 (2009);
         "P. Giannozzi et al., J. Phys.:Condens. Matter 29 465901 (2017);
         "P. Giannozzi et al., J. Chem. Phys. 152 154105 (2020);
          URL http://www.quantum-espresso.org", 
     in publications or presentations arising from this work. More details at
     http://www.quantum-espresso.org/quote

     Parallel version (MPI), running on     4 processors

     MPI processes distributed on     1 nodes
     R & G space division:  proc/nbgrp/npool/nimage =       4
     Waiting for input...
     Reading input from standard input
     Message from routine read_cards :
     DEPRECATED: no units specified in CELL_PARAMETERS card

     Current dimensions of program PWSCF are:
     Max number of different atomic species (ntypx) = 10
     Max number of k-points (npk) =  40000
     Max angular momentum in pseudopotentials (lmaxx) =  3

     gamma-point specific algorithms are used

     Subspace diagonalization in iterative solution of the eigenvalue problem:
     one sub-group per band group will be used
     scalapack distributed-memory algorithm (size of sub-group:  2*  2 procs)


     Parallelization info
     --------------------
     sticks:   dense  smooth     PW     G-vecs:    dense   smooth      PW
     Min        1429    1429    358                81505    81505   10162
     Max        1432    1432    359                81512    81512   10165
     Sum        5721    5721   1433               326029   326029   40651

     Using Slab Decomposition



     bravais-lattice index     =            0
     lattice parameter (alat)  =      20.0000  a.u.
     unit-cell volume          =    8000.0000 (a.u.)^3
     number of atoms/cell      =            6
     number of atomic types    =            3
     number of electrons       =        18.00
     number of Kohn-Sham states=            9
     kinetic-energy cutoff     =      45.0000  Ry
     charge density cutoff     =     180.0000  Ry
     scf convergence threshold =      1.0E-12
     mixing beta               =       0.5000
     number of iterations used =            8  plain     mixing
     Exchange-correlation= PBE
                           (   1   4   3   4   0   0   0)

     celldm(1)=  20.000000  celldm(2)=   0.000000  celldm(3)=   0.000000
     celldm(4)=   0.000000  celldm(5)=   0.000000  celldm(6)=   0.000000

     crystal axes: (cart. coord. in units of alat)
               a(1) = (   1.000000   0.000000   0.000000 )  
               a(2) = (   0.000000   1.000000   0.000000 )  
               a(3) = (   0.000000   0.000000   1.000000 )  

     reciprocal axes: (cart. coord. in units 2 pi/alat)
               b(1) = (  1.000000  0.000000  0.000000 )  
               b(2) = (  0.000000  1.000000  0.000000 )  
               b(3) = (  0.000000  0.000000  1.000000 )  


     PseudoPot. # 1 for Br read from file:
     /home/ciga/builds/pseudo_potentials/Br.upf
     MD5 check sum: 41f672ce76ec6f6480a05aabe46aac99
     Pseudo is Norm-conserving + core correction, Zval =  7.0
     Generated using ONCVPSP code by D. R. Hamann
     Using radial grid of 1110 points,  6 beta functions with: 
                l(1) =   0
                l(2) =   0
                l(3) =   1
                l(4) =   1
                l(5) =   2
                l(6) =   2

     PseudoPot. # 2 for C  read from file:
     /home/ciga/builds/pseudo_potentials/C.upf
     MD5 check sum: d80ec9912146af6c4c1760317d1f95e9
     Pseudo is Norm-conserving + core correction, Zval =  4.0
     Generated using ONCVPSP code by D. R. Hamann
     Using radial grid of 1248 points,  4 beta functions with: 
                l(1) =   0
                l(2) =   0
                l(3) =   1
                l(4) =   1

     PseudoPot. # 3 for H  read from file:
     /home/ciga/builds/pseudo_potentials/H.upf
     MD5 check sum: 418cee52d0c413ae40802e6cc37ab9e3
     Pseudo is Norm-conserving, Zval =  1.0
     Generated using ONCVPSP code by D. R. Hamann
     Using radial grid of 1166 points,  3 beta functions with: 
                l(1) =   0
                l(2) =   0
                l(3) =   1

     atomic species   valence    mass     pseudopotential
        Br             7.00    79.90400     Br( 1.00)
        C              4.00    12.01070     C ( 1.00)
        H              1.00     1.00794     H ( 1.00)

     No symmetry found



   Cartesian axes

     site n.     atom                  positions (alat units)
         1           Br  tau(   1) = (   0.5673411   0.4251563   0.5794864  )
         2           C   tau(   2) = (   0.4177051   0.4251884   0.3580370  )
         3           C   tau(   3) = (   0.4177051   0.4251884   0.4832880  )
         4           H   tau(   4) = (   0.3285733   0.4253320   0.3078893  )
         5           H   tau(   5) = (   0.3331493   0.4251884   0.5401281  )
         6           H   tau(   6) = (   0.5035355   0.4251884   0.3031404  )

     number of k points=     1
                       cart. coord. in units 2pi/alat
        k(    1) = (   0.0000000   0.0000000   0.0000000), wk =   2.0000000

     Dense  grid:   163015 G-vectors     FFT dimensions: (  90,  90,  90)

     Estimated max dynamical RAM per process >      42.77 MB

     Estimated total dynamical RAM >     171.09 MB

     Initial potential from superposition of free atoms

     starting charge   17.99986, renormalised to   18.00000

     negative rho (up, down):  9.400E-04 0.000E+00
     Starting wfcs are   15 randomized atomic wfcs

     total cpu time spent up to now is        0.8 secs

     Self-consistent Calculation

     iteration #  1     ecut=    45.00 Ry     beta= 0.50
     Davidson diagonalization with overlap
     ethr =  1.00E-02,  avg # of iterations =  2.0

     negative rho (up, down):  3.921E-04 0.000E+00

     total cpu time spent up to now is        1.4 secs

     total energy              =     -58.84186895 Ry
     estimated scf accuracy    <       0.67174472 Ry

     iteration #  2     ecut=    45.00 Ry     beta= 0.50
     Davidson diagonalization with overlap
     ethr =  3.73E-03,  avg # of iterations =  3.0

     negative rho (up, down):  1.815E-04 0.000E+00

     total cpu time spent up to now is        2.0 secs

     total energy              =     -58.97944729 Ry
     estimated scf accuracy    <       0.07239970 Ry

     iteration #  3     ecut=    45.00 Ry     beta= 0.50
     Davidson diagonalization with overlap
     ethr =  4.02E-04,  avg # of iterations =  2.0

     negative rho (up, down):  4.464E-05 0.000E+00

     total cpu time spent up to now is        2.5 secs

     total energy              =     -58.98310011 Ry
     estimated scf accuracy    <       0.01443698 Ry

     iteration #  4     ecut=    45.00 Ry     beta= 0.50
     Davidson diagonalization with overlap
     ethr =  8.02E-05,  avg # of iterations =  4.0

     negative rho (up, down):  7.865E-06 0.000E+00

     total cpu time spent up to now is        3.1 secs

     total energy              =     -58.98382414 Ry
     estimated scf accuracy    <       0.00627943 Ry

     iteration #  5     ecut=    45.00 Ry     beta= 0.50
     Davidson diagonalization with overlap
     ethr =  3.49E-05,  avg # of iterations =  5.0

     negative rho (up, down):  2.233E-06 0.000E+00

     total cpu time spent up to now is        3.7 secs

     total energy              =     -58.98559227 Ry
     estimated scf accuracy    <       0.00686191 Ry

     iteration #  6     ecut=    45.00 Ry     beta= 0.50
     Davidson diagonalization with overlap
     ethr =  3.49E-05,  avg # of iterations =  4.0

     negative rho (up, down):  1.678E-07 0.000E+00

     total cpu time spent up to now is        4.3 secs

     total energy              =     -58.98633624 Ry
     estimated scf accuracy    <       0.00027746 Ry

     iteration #  7     ecut=    45.00 Ry     beta= 0.50
     Davidson diagonalization with overlap
     ethr =  1.54E-06,  avg # of iterations =  5.0

     negative rho (up, down):  2.803E-08 0.000E+00

     total cpu time spent up to now is        5.0 secs

     total energy              =     -58.98648435 Ry
     estimated scf accuracy    <       0.00003305 Ry

     iteration #  8     ecut=    45.00 Ry     beta= 0.50
     Davidson diagonalization with overlap
     ethr =  1.84E-07,  avg # of iterations =  1.0

     total cpu time spent up to now is        5.5 secs

     total energy              =     -58.98647955 Ry
     estimated scf accuracy    <       0.00001145 Ry

     iteration #  9     ecut=    45.00 Ry     beta= 0.50
     Davidson diagonalization with overlap
     ethr =  6.36E-08,  avg # of iterations =  4.0

     total cpu time spent up to now is        6.1 secs

     total energy              =     -58.98648363 Ry
     estimated scf accuracy    <       0.00000592 Ry

     iteration # 10     ecut=    45.00 Ry     beta= 0.50
     Davidson diagonalization with overlap
     ethr =  3.29E-08,  avg # of iterations =  4.0

     total cpu time spent up to now is        6.7 secs

     total energy              =     -58.98648467 Ry
     estimated scf accuracy    <       0.00000005 Ry

     iteration # 11     ecut=    45.00 Ry     beta= 0.50
     Davidson diagonalization with overlap
     ethr =  2.85E-10,  avg # of iterations =  6.0

     total cpu time spent up to now is        7.5 secs

     total energy              =     -58.98648461 Ry
     estimated scf accuracy    <       0.00000047 Ry

     iteration # 12     ecut=    45.00 Ry     beta= 0.50
     Davidson diagonalization with overlap
     ethr =  2.85E-10,  avg # of iterations =  5.0

     total cpu time spent up to now is        8.2 secs

     total energy              =     -58.98648463 Ry
     estimated scf accuracy    <       0.00000005 Ry

     iteration # 13     ecut=    45.00 Ry     beta= 0.50
     Davidson diagonalization with overlap
     ethr =  2.71E-10,  avg # of iterations =  4.0

     total cpu time spent up to now is        8.8 secs

     total energy              =     -58.98648465 Ry
     estimated scf accuracy    <       0.00000001 Ry

     iteration # 14     ecut=    45.00 Ry     beta= 0.50
     Davidson diagonalization with overlap
     ethr =  5.91E-11,  avg # of iterations =  1.0

     total cpu time spent up to now is        9.3 secs

     total energy              =     -58.98648465 Ry
     estimated scf accuracy    <          8.3E-09 Ry

     iteration # 15     ecut=    45.00 Ry     beta= 0.50
     Davidson diagonalization with overlap
     ethr =  4.61E-11,  avg # of iterations =  2.0

     total cpu time spent up to now is        9.8 secs

     total energy              =     -58.98648465 Ry
     estimated scf accuracy    <          1.4E-09 Ry

     iteration # 16     ecut=    45.00 Ry     beta= 0.50
     Davidson diagonalization with overlap
     ethr =  7.50E-12,  avg # of iterations =  4.0

     total cpu time spent up to now is       10.4 secs

     total energy              =     -58.98648465 Ry
     estimated scf accuracy    <          8.2E-12 Ry

     iteration # 17     ecut=    45.00 Ry     beta= 0.50
     Davidson diagonalization with overlap
     ethr =  1.00E-13,  avg # of iterations =  4.0

     total cpu time spent up to now is       11.1 secs

     total energy              =     -58.98648465 Ry
     estimated scf accuracy    <          9.3E-12 Ry

     iteration # 18     ecut=    45.00 Ry     beta= 0.50
     Davidson diagonalization with overlap
     ethr =  1.00E-13,  avg # of iterations =  1.0

     total cpu time spent up to now is       11.6 secs

     total energy              =     -58.98648465 Ry
     estimated scf accuracy    <          1.1E-11 Ry

     iteration # 19     ecut=    45.00 Ry     beta= 0.50
     Davidson diagonalization with overlap
     ethr =  1.00E-13,  avg # of iterations =  2.0

     total cpu time spent up to now is       12.1 secs

     End of self-consistent calculation

          k = 0.0000 0.0000 0.0000 ( 20326 PWs)   bands (ev):

   -20.7638 -18.2501 -14.0433 -11.4875 -10.4644  -8.6794  -8.0582  -6.5846
    -5.8652

     highest occupied level (ev):    -5.8652

!    total energy              =     -58.98648465 Ry
     estimated scf accuracy    <          7.9E-13 Ry

     The total energy is the sum of the following terms:
     one-electron contribution =    -121.53802631 Ry
     hartree contribution      =      62.70832424 Ry
     xc contribution           =     -20.88940299 Ry
     ewald contribution        =      20.73262041 Ry

     convergence has been achieved in  19 iterations

     Forces acting on atoms (cartesian axes, Ry/au):

     atom    1 type  1   force =     0.00952493   -0.00003355    0.00953559
     atom    2 type  2   force =    -0.00289065    0.00015971   -0.00670671
     atom    3 type  2   force =    -0.00042230   -0.00005033   -0.00065471
     atom    4 type  3   force =    -0.00823650   -0.00009464   -0.00455050
     atom    5 type  3   force =    -0.00810226    0.00003831    0.00940066
     atom    6 type  3   force =     0.01012677   -0.00001949   -0.00702432

     Total force =     0.025102     Total SCF correction =     0.000001

     Writing output data file ./Vynil_bromide.save/

     init_run     :      0.64s CPU      0.68s WALL (       1 calls)
     electrons    :     11.02s CPU     11.32s WALL (       1 calls)
     forces       :      0.41s CPU      0.42s WALL (       1 calls)

     Called by init_run:
     wfcinit      :      0.16s CPU      0.16s WALL (       1 calls)
     potinit      :      0.29s CPU      0.31s WALL (       1 calls)
     hinit0       :      0.14s CPU      0.15s WALL (       1 calls)

     Called by electrons:
     c_bands      :      5.64s CPU      5.69s WALL (      19 calls)
     sum_band     :      1.54s CPU      1.56s WALL (      19 calls)
     v_of_rho     :      3.11s CPU      3.35s WALL (      20 calls)
     mix_rho      :      0.77s CPU      0.78s WALL (      19 calls)

     Called by c_bands:
     init_us_2    :      0.11s CPU      0.11s WALL (      39 calls)
     regterg      :      5.48s CPU      5.53s WALL (      19 calls)

     Called by *egterg:
     rdiaghg      :      0.04s CPU      0.04s WALL (      82 calls)
     h_psi        :      5.11s CPU      5.16s WALL (      83 calls)
     g_psi        :      0.01s CPU      0.01s WALL (      63 calls)

     Called by h_psi:
     h_psi:calbec :      0.39s CPU      0.39s WALL (      83 calls)
     vloc_psi     :      4.42s CPU      4.46s WALL (      83 calls)
     add_vuspsi   :      0.29s CPU      0.30s WALL (      83 calls)

     General routines
     calbec       :      0.41s CPU      0.42s WALL (      87 calls)
     fft          :      2.42s CPU      2.49s WALL (     168 calls)
     ffts         :      0.25s CPU      0.25s WALL (      19 calls)
     fftw         :      4.24s CPU      4.28s WALL (     663 calls)

     Parallel routines

     PWSCF        :     12.19s CPU     12.56s WALL


   This run was terminated on:   4:39:29  24May2021            

=------------------------------------------------------------------------------=
   JOB DONE.
=------------------------------------------------------------------------------=
