
     Program PWSCF v.6.7GPU starts on 24May2021 at  7: 2:19 

     This program is part of the open-source Quantum ESPRESSO suite
     for quantum simulation of materials; please cite
         "P. Giannozzi et al., J. Phys.:Condens. Matter 21 395502 (2009);
         "P. Giannozzi et al., J. Phys.:Condens. Matter 29 465901 (2017);
         "P. Giannozzi et al., J. Chem. Phys. 152 154105 (2020);
          URL http://www.quantum-espresso.org", 
     in publications or presentations arising from this work. More details at
     http://www.quantum-espresso.org/quote

     Parallel version (MPI), running on     4 processors

     MPI processes distributed on     1 nodes
     R & G space division:  proc/nbgrp/npool/nimage =       4
     Waiting for input...
     Reading input from standard input
     Message from routine read_cards :
     DEPRECATED: no units specified in CELL_PARAMETERS card

     Current dimensions of program PWSCF are:
     Max number of different atomic species (ntypx) = 10
     Max number of k-points (npk) =  40000
     Max angular momentum in pseudopotentials (lmaxx) =  3

     gamma-point specific algorithms are used

     Subspace diagonalization in iterative solution of the eigenvalue problem:
     one sub-group per band group will be used
     scalapack distributed-memory algorithm (size of sub-group:  2*  2 procs)


     Parallelization info
     --------------------
     sticks:   dense  smooth     PW     G-vecs:    dense   smooth      PW
     Min        1429    1429    358                81505    81505   10162
     Max        1432    1432    359                81512    81512   10165
     Sum        5721    5721   1433               326029   326029   40651

     Using Slab Decomposition



     bravais-lattice index     =            0
     lattice parameter (alat)  =      20.0000  a.u.
     unit-cell volume          =    8000.0000 (a.u.)^3
     number of atoms/cell      =            6
     number of atomic types    =            3
     number of electrons       =        18.00
     number of Kohn-Sham states=            9
     kinetic-energy cutoff     =      45.0000  Ry
     charge density cutoff     =     180.0000  Ry
     scf convergence threshold =      1.0E-12
     mixing beta               =       0.5000
     number of iterations used =            8  plain     mixing
     Exchange-correlation= PBE
                           (   1   4   3   4   0   0   0)

     celldm(1)=  20.000000  celldm(2)=   0.000000  celldm(3)=   0.000000
     celldm(4)=   0.000000  celldm(5)=   0.000000  celldm(6)=   0.000000

     crystal axes: (cart. coord. in units of alat)
               a(1) = (   1.000000   0.000000   0.000000 )  
               a(2) = (   0.000000   1.000000   0.000000 )  
               a(3) = (   0.000000   0.000000   1.000000 )  

     reciprocal axes: (cart. coord. in units 2 pi/alat)
               b(1) = (  1.000000  0.000000  0.000000 )  
               b(2) = (  0.000000  1.000000  0.000000 )  
               b(3) = (  0.000000  0.000000  1.000000 )  


     PseudoPot. # 1 for C  read from file:
     /home/ciga/builds/pseudo_potentials/C.upf
     MD5 check sum: d80ec9912146af6c4c1760317d1f95e9
     Pseudo is Norm-conserving + core correction, Zval =  4.0
     Generated using ONCVPSP code by D. R. Hamann
     Using radial grid of 1248 points,  4 beta functions with: 
                l(1) =   0
                l(2) =   0
                l(3) =   1
                l(4) =   1

     PseudoPot. # 2 for H  read from file:
     /home/ciga/builds/pseudo_potentials/H.upf
     MD5 check sum: 418cee52d0c413ae40802e6cc37ab9e3
     Pseudo is Norm-conserving, Zval =  1.0
     Generated using ONCVPSP code by D. R. Hamann
     Using radial grid of 1166 points,  3 beta functions with: 
                l(1) =   0
                l(2) =   0
                l(3) =   1

     PseudoPot. # 3 for Cl read from file:
     /home/ciga/builds/pseudo_potentials/Cl.upf
     MD5 check sum: b1ddb435c2952724bdf458cc656d2c80
     Pseudo is Norm-conserving + core correction, Zval =  7.0
     Generated using ONCVPSP code by D. R. Hamann
     Using radial grid of 1028 points,  6 beta functions with: 
                l(1) =   0
                l(2) =   0
                l(3) =   1
                l(4) =   1
                l(5) =   2
                l(6) =   2

     atomic species   valence    mass     pseudopotential
        C              4.00    12.01070     C ( 1.00)
        H              1.00     1.00794     H ( 1.00)
        Cl             7.00    35.45300     Cl( 1.00)

     No symmetry found



   Cartesian axes

     site n.     atom                  positions (alat units)
         1           C   tau(   1) = (  -0.0523705  -0.0420805   0.0104952  )
         2           C   tau(   2) = (   0.0351729   0.0413883  -0.0221608  )
         3           H   tau(   3) = (  -0.1249197  -0.0199142   0.0786069  )
         4           H   tau(   4) = (  -0.0513719  -0.1346662  -0.0321760  )
         5           H   tau(   5) = (   0.1089667   0.0228062  -0.0899078  )
         6           Cl  tau(   6) = (   0.0416146   0.1916906   0.0407987  )

     number of k points=     1
                       cart. coord. in units 2pi/alat
        k(    1) = (   0.0000000   0.0000000   0.0000000), wk =   2.0000000

     Dense  grid:   163015 G-vectors     FFT dimensions: (  90,  90,  90)

     Estimated max dynamical RAM per process >      42.77 MB

     Estimated total dynamical RAM >     171.09 MB

     Initial potential from superposition of free atoms

     starting charge   17.99988, renormalised to   18.00000

     negative rho (up, down):  1.092E-03 0.000E+00
     Starting wfcs are   15 randomized atomic wfcs

     total cpu time spent up to now is        0.8 secs

     Self-consistent Calculation

     iteration #  1     ecut=    45.00 Ry     beta= 0.50
     Davidson diagonalization with overlap
     ethr =  1.00E-02,  avg # of iterations =  2.0

     negative rho (up, down):  4.776E-04 0.000E+00

     total cpu time spent up to now is        1.4 secs

     total energy              =     -60.22005807 Ry
     estimated scf accuracy    <       0.63733117 Ry

     iteration #  2     ecut=    45.00 Ry     beta= 0.50
     Davidson diagonalization with overlap
     ethr =  3.54E-03,  avg # of iterations =  3.0

     negative rho (up, down):  2.183E-04 0.000E+00

     total cpu time spent up to now is        1.9 secs

     total energy              =     -60.34026333 Ry
     estimated scf accuracy    <       0.07321808 Ry

     iteration #  3     ecut=    45.00 Ry     beta= 0.50
     Davidson diagonalization with overlap
     ethr =  4.07E-04,  avg # of iterations =  2.0

     negative rho (up, down):  5.386E-05 0.000E+00

     total cpu time spent up to now is        2.5 secs

     total energy              =     -60.34396246 Ry
     estimated scf accuracy    <       0.01290365 Ry

     iteration #  4     ecut=    45.00 Ry     beta= 0.50
     Davidson diagonalization with overlap
     ethr =  7.17E-05,  avg # of iterations =  4.0

     negative rho (up, down):  1.338E-05 0.000E+00

     total cpu time spent up to now is        3.1 secs

     total energy              =     -60.34427910 Ry
     estimated scf accuracy    <       0.00797943 Ry

     iteration #  5     ecut=    45.00 Ry     beta= 0.50
     Davidson diagonalization with overlap
     ethr =  4.43E-05,  avg # of iterations =  5.0

     negative rho (up, down):  1.911E-06 0.000E+00

     total cpu time spent up to now is        3.7 secs

     total energy              =     -60.34680854 Ry
     estimated scf accuracy    <       0.00797013 Ry

     iteration #  6     ecut=    45.00 Ry     beta= 0.50
     Davidson diagonalization with overlap
     ethr =  4.43E-05,  avg # of iterations =  3.0

     negative rho (up, down):  7.480E-08 0.000E+00

     total cpu time spent up to now is        4.3 secs

     total energy              =     -60.34709974 Ry
     estimated scf accuracy    <       0.00088619 Ry

     iteration #  7     ecut=    45.00 Ry     beta= 0.50
     Davidson diagonalization with overlap
     ethr =  4.92E-06,  avg # of iterations =  6.0

     negative rho (up, down):  3.692E-08 0.000E+00

     total cpu time spent up to now is        5.0 secs

     total energy              =     -60.34751228 Ry
     estimated scf accuracy    <       0.00045434 Ry

     iteration #  8     ecut=    45.00 Ry     beta= 0.50
     Davidson diagonalization with overlap
     ethr =  2.52E-06,  avg # of iterations =  3.0

     total cpu time spent up to now is        5.5 secs

     total energy              =     -60.34754500 Ry
     estimated scf accuracy    <       0.00004369 Ry

     iteration #  9     ecut=    45.00 Ry     beta= 0.50
     Davidson diagonalization with overlap
     ethr =  2.43E-07,  avg # of iterations =  6.0

     total cpu time spent up to now is        6.2 secs

     total energy              =     -60.34756561 Ry
     estimated scf accuracy    <       0.00001468 Ry

     iteration # 10     ecut=    45.00 Ry     beta= 0.50
     Davidson diagonalization with overlap
     ethr =  8.16E-08,  avg # of iterations =  2.0

     total cpu time spent up to now is        6.8 secs

     total energy              =     -60.34756555 Ry
     estimated scf accuracy    <       0.00000320 Ry

     iteration # 11     ecut=    45.00 Ry     beta= 0.50
     Davidson diagonalization with overlap
     ethr =  1.78E-08,  avg # of iterations =  5.0

     total cpu time spent up to now is        7.4 secs

     total energy              =     -60.34756669 Ry
     estimated scf accuracy    <       0.00000024 Ry

     iteration # 12     ecut=    45.00 Ry     beta= 0.50
     Davidson diagonalization with overlap
     ethr =  1.31E-09,  avg # of iterations =  3.0

     total cpu time spent up to now is        7.9 secs

     total energy              =     -60.34756671 Ry
     estimated scf accuracy    <       0.00000004 Ry

     iteration # 13     ecut=    45.00 Ry     beta= 0.50
     Davidson diagonalization with overlap
     ethr =  2.21E-10,  avg # of iterations =  5.0

     total cpu time spent up to now is        8.5 secs

     total energy              =     -60.34756672 Ry
     estimated scf accuracy    <          8.0E-10 Ry

     iteration # 14     ecut=    45.00 Ry     beta= 0.50
     Davidson diagonalization with overlap
     ethr =  4.45E-12,  avg # of iterations =  7.0

     total cpu time spent up to now is        9.3 secs

     total energy              =     -60.34756672 Ry
     estimated scf accuracy    <          7.4E-09 Ry

     iteration # 15     ecut=    45.00 Ry     beta= 0.50
     Davidson diagonalization with overlap
     ethr =  4.45E-12,  avg # of iterations =  5.0

     total cpu time spent up to now is       10.0 secs

     total energy              =     -60.34756672 Ry
     estimated scf accuracy    <          3.8E-10 Ry

     iteration # 16     ecut=    45.00 Ry     beta= 0.50
     Davidson diagonalization with overlap
     ethr =  2.13E-12,  avg # of iterations =  4.0

     total cpu time spent up to now is       10.7 secs

     total energy              =     -60.34756672 Ry
     estimated scf accuracy    <          8.9E-11 Ry

     iteration # 17     ecut=    45.00 Ry     beta= 0.50
     Davidson diagonalization with overlap
     ethr =  4.97E-13,  avg # of iterations =  1.0

     total cpu time spent up to now is       11.2 secs

     total energy              =     -60.34756672 Ry
     estimated scf accuracy    <          4.1E-11 Ry

     iteration # 18     ecut=    45.00 Ry     beta= 0.50
     Davidson diagonalization with overlap
     ethr =  2.27E-13,  avg # of iterations =  3.0

     total cpu time spent up to now is       11.8 secs

     total energy              =     -60.34756672 Ry
     estimated scf accuracy    <          2.9E-12 Ry

     iteration # 19     ecut=    45.00 Ry     beta= 0.50
     Davidson diagonalization with overlap
     ethr =  1.00E-13,  avg # of iterations =  1.0

     total cpu time spent up to now is       12.3 secs

     End of self-consistent calculation

          k = 0.0000 0.0000 0.0000 ( 20326 PWs)   bands (ev):

   -21.6428 -18.3218 -14.1332 -11.7426 -10.7025  -9.0655  -8.6829  -7.1500
    -6.0407

     highest occupied level (ev):    -6.0407

!    total energy              =     -60.34756672 Ry
     estimated scf accuracy    <          6.9E-13 Ry

     The total energy is the sum of the following terms:
     one-electron contribution =    -131.67953837 Ry
     hartree contribution      =      67.83295284 Ry
     xc contribution           =     -19.51124308 Ry
     ewald contribution        =      23.01026189 Ry

     convergence has been achieved in  19 iterations

     Forces acting on atoms (cartesian axes, Ry/au):

     atom    1 type  1   force =    -0.00461446   -0.00376750    0.00176010
     atom    2 type  1   force =     0.00142158    0.00467222    0.00096187
     atom    3 type  2   force =    -0.00853965    0.00032967    0.00725267
     atom    4 type  2   force =    -0.00090511   -0.01141702   -0.00444378
     atom    5 type  2   force =     0.00991528   -0.00050792   -0.00814916
     atom    6 type  3   force =     0.00272236    0.01069055    0.00261829

     Total force =     0.025168     Total SCF correction =     0.000001

     Writing output data file ./Vynil_chloride.save/

     init_run     :      0.65s CPU      0.69s WALL (       1 calls)
     electrons    :     11.22s CPU     11.49s WALL (       1 calls)
     forces       :      0.40s CPU      0.42s WALL (       1 calls)

     Called by init_run:
     wfcinit      :      0.16s CPU      0.16s WALL (       1 calls)
     potinit      :      0.29s CPU      0.32s WALL (       1 calls)
     hinit0       :      0.15s CPU      0.16s WALL (       1 calls)

     Called by electrons:
     c_bands      :      5.78s CPU      5.82s WALL (      19 calls)
     sum_band     :      1.57s CPU      1.58s WALL (      19 calls)
     v_of_rho     :      3.14s CPU      3.36s WALL (      20 calls)
     mix_rho      :      0.77s CPU      0.79s WALL (      19 calls)

     Called by c_bands:
     init_us_2    :      0.11s CPU      0.11s WALL (      39 calls)
     regterg      :      5.62s CPU      5.65s WALL (      19 calls)

     Called by *egterg:
     rdiaghg      :      0.04s CPU      0.04s WALL (      89 calls)
     h_psi        :      5.25s CPU      5.28s WALL (      90 calls)
     g_psi        :      0.01s CPU      0.01s WALL (      70 calls)

     Called by h_psi:
     h_psi:calbec :      0.39s CPU      0.39s WALL (      90 calls)
     vloc_psi     :      4.54s CPU      4.57s WALL (      90 calls)
     add_vuspsi   :      0.30s CPU      0.30s WALL (      90 calls)

     General routines
     calbec       :      0.42s CPU      0.42s WALL (      94 calls)
     fft          :      2.21s CPU      2.26s WALL (     168 calls)
     ffts         :      0.26s CPU      0.26s WALL (      19 calls)
     fftw         :      4.34s CPU      4.37s WALL (     671 calls)

     Parallel routines

     PWSCF        :     12.37s CPU     12.71s WALL


   This run was terminated on:   7: 2:32  24May2021            

=------------------------------------------------------------------------------=
   JOB DONE.
=------------------------------------------------------------------------------=
