
     Program PWSCF v.6.7GPU starts on 24May2021 at  7: 4:11 

     This program is part of the open-source Quantum ESPRESSO suite
     for quantum simulation of materials; please cite
         "P. Giannozzi et al., J. Phys.:Condens. Matter 21 395502 (2009);
         "P. Giannozzi et al., J. Phys.:Condens. Matter 29 465901 (2017);
         "P. Giannozzi et al., J. Chem. Phys. 152 154105 (2020);
          URL http://www.quantum-espresso.org", 
     in publications or presentations arising from this work. More details at
     http://www.quantum-espresso.org/quote

     Parallel version (MPI), running on     4 processors

     MPI processes distributed on     1 nodes
     R & G space division:  proc/nbgrp/npool/nimage =       4
     Waiting for input...
     Reading input from standard input
     Message from routine read_cards :
     DEPRECATED: no units specified in CELL_PARAMETERS card

     Current dimensions of program PWSCF are:
     Max number of different atomic species (ntypx) = 10
     Max number of k-points (npk) =  40000
     Max angular momentum in pseudopotentials (lmaxx) =  3

     gamma-point specific algorithms are used

     Subspace diagonalization in iterative solution of the eigenvalue problem:
     one sub-group per band group will be used
     scalapack distributed-memory algorithm (size of sub-group:  2*  2 procs)


     Parallelization info
     --------------------
     sticks:   dense  smooth     PW     G-vecs:    dense   smooth      PW
     Min        2386    2386    595               175366   175366   21912
     Max        2388    2388    598               175372   175372   21918
     Sum        9549    9549   2385               701475   701475   87655

     Using Slab Decomposition



     bravais-lattice index     =            0
     lattice parameter (alat)  =      20.0000  a.u.
     unit-cell volume          =    8000.0000 (a.u.)^3
     number of atoms/cell      =            6
     number of atomic types    =            3
     number of electrons       =        18.00
     number of Kohn-Sham states=            9
     kinetic-energy cutoff     =      75.0000  Ry
     charge density cutoff     =     300.0000  Ry
     scf convergence threshold =      1.0E-12
     mixing beta               =       0.5000
     number of iterations used =            8  plain     mixing
     Exchange-correlation= PBE
                           (   1   4   3   4   0   0   0)

     celldm(1)=  20.000000  celldm(2)=   0.000000  celldm(3)=   0.000000
     celldm(4)=   0.000000  celldm(5)=   0.000000  celldm(6)=   0.000000

     crystal axes: (cart. coord. in units of alat)
               a(1) = (   1.000000   0.000000   0.000000 )  
               a(2) = (   0.000000   1.000000   0.000000 )  
               a(3) = (   0.000000   0.000000   1.000000 )  

     reciprocal axes: (cart. coord. in units 2 pi/alat)
               b(1) = (  1.000000  0.000000  0.000000 )  
               b(2) = (  0.000000  1.000000  0.000000 )  
               b(3) = (  0.000000  0.000000  1.000000 )  


     PseudoPot. # 1 for C  read from file:
     /home/ciga/builds/pseudo_potentials/C.upf
     MD5 check sum: d80ec9912146af6c4c1760317d1f95e9
     Pseudo is Norm-conserving + core correction, Zval =  4.0
     Generated using ONCVPSP code by D. R. Hamann
     Using radial grid of 1248 points,  4 beta functions with: 
                l(1) =   0
                l(2) =   0
                l(3) =   1
                l(4) =   1

     PseudoPot. # 2 for H  read from file:
     /home/ciga/builds/pseudo_potentials/H.upf
     MD5 check sum: 418cee52d0c413ae40802e6cc37ab9e3
     Pseudo is Norm-conserving, Zval =  1.0
     Generated using ONCVPSP code by D. R. Hamann
     Using radial grid of 1166 points,  3 beta functions with: 
                l(1) =   0
                l(2) =   0
                l(3) =   1

     PseudoPot. # 3 for Cl read from file:
     /home/ciga/builds/pseudo_potentials/Cl.upf
     MD5 check sum: b1ddb435c2952724bdf458cc656d2c80
     Pseudo is Norm-conserving + core correction, Zval =  7.0
     Generated using ONCVPSP code by D. R. Hamann
     Using radial grid of 1028 points,  6 beta functions with: 
                l(1) =   0
                l(2) =   0
                l(3) =   1
                l(4) =   1
                l(5) =   2
                l(6) =   2

     atomic species   valence    mass     pseudopotential
        C              4.00    12.01070     C ( 1.00)
        H              1.00     1.00794     H ( 1.00)
        Cl             7.00    35.45300     Cl( 1.00)

     No symmetry found



   Cartesian axes

     site n.     atom                  positions (alat units)
         1           C   tau(   1) = (  -0.0523705  -0.0420805   0.0104952  )
         2           C   tau(   2) = (   0.0351729   0.0413883  -0.0221608  )
         3           H   tau(   3) = (  -0.1249197  -0.0199142   0.0786069  )
         4           H   tau(   4) = (  -0.0513719  -0.1346662  -0.0321760  )
         5           H   tau(   5) = (   0.1089667   0.0228062  -0.0899078  )
         6           Cl  tau(   6) = (   0.0416146   0.1916906   0.0407987  )

     number of k points=     1
                       cart. coord. in units 2pi/alat
        k(    1) = (   0.0000000   0.0000000   0.0000000), wk =   2.0000000

     Dense  grid:   350738 G-vectors     FFT dimensions: ( 120, 120, 120)

     Estimated max dynamical RAM per process >      91.38 MB

     Estimated total dynamical RAM >     365.53 MB

     Initial potential from superposition of free atoms

     starting charge   17.99988, renormalised to   18.00000

     negative rho (up, down):  1.059E-04 0.000E+00
     Starting wfcs are   15 randomized atomic wfcs

     total cpu time spent up to now is        1.5 secs

     Self-consistent Calculation

     iteration #  1     ecut=    75.00 Ry     beta= 0.50
     Davidson diagonalization with overlap
     ethr =  1.00E-02,  avg # of iterations =  2.0

     negative rho (up, down):  2.757E-05 0.000E+00

     total cpu time spent up to now is        2.7 secs

     total energy              =     -60.26224060 Ry
     estimated scf accuracy    <       0.67229106 Ry

     iteration #  2     ecut=    75.00 Ry     beta= 0.50
     Davidson diagonalization with overlap
     ethr =  3.73E-03,  avg # of iterations =  3.0

     negative rho (up, down):  8.888E-06 0.000E+00

     total cpu time spent up to now is        4.0 secs

     total energy              =     -60.39429509 Ry
     estimated scf accuracy    <       0.07696583 Ry

     iteration #  3     ecut=    75.00 Ry     beta= 0.50
     Davidson diagonalization with overlap
     ethr =  4.28E-04,  avg # of iterations =  2.0

     negative rho (up, down):  1.913E-06 0.000E+00

     total cpu time spent up to now is        5.1 secs

     total energy              =     -60.39786290 Ry
     estimated scf accuracy    <       0.01381894 Ry

     iteration #  4     ecut=    75.00 Ry     beta= 0.50
     Davidson diagonalization with overlap
     ethr =  7.68E-05,  avg # of iterations =  4.0

     negative rho (up, down):  4.916E-07 0.000E+00

     total cpu time spent up to now is        6.5 secs

     total energy              =     -60.39834356 Ry
     estimated scf accuracy    <       0.00883077 Ry

     iteration #  5     ecut=    75.00 Ry     beta= 0.50
     Davidson diagonalization with overlap
     ethr =  4.91E-05,  avg # of iterations =  5.0

     negative rho (up, down):  8.299E-08 0.000E+00

     total cpu time spent up to now is        8.0 secs

     total energy              =     -60.40121976 Ry
     estimated scf accuracy    <       0.00804376 Ry

     iteration #  6     ecut=    75.00 Ry     beta= 0.50
     Davidson diagonalization with overlap
     ethr =  4.47E-05,  avg # of iterations =  2.0

     total cpu time spent up to now is        9.2 secs

     total energy              =     -60.40106906 Ry
     estimated scf accuracy    <       0.00153282 Ry

     iteration #  7     ecut=    75.00 Ry     beta= 0.50
     Davidson diagonalization with overlap
     ethr =  8.52E-06,  avg # of iterations =  5.0

     total cpu time spent up to now is       10.6 secs

     total energy              =     -60.40188850 Ry
     estimated scf accuracy    <       0.00062098 Ry

     iteration #  8     ecut=    75.00 Ry     beta= 0.50
     Davidson diagonalization with overlap
     ethr =  3.45E-06,  avg # of iterations =  2.0

     total cpu time spent up to now is       11.8 secs

     total energy              =     -60.40185274 Ry
     estimated scf accuracy    <       0.00017192 Ry

     iteration #  9     ecut=    75.00 Ry     beta= 0.50
     Davidson diagonalization with overlap
     ethr =  9.55E-07,  avg # of iterations =  5.0

     total cpu time spent up to now is       13.3 secs

     total energy              =     -60.40191041 Ry
     estimated scf accuracy    <       0.00001572 Ry

     iteration # 10     ecut=    75.00 Ry     beta= 0.50
     Davidson diagonalization with overlap
     ethr =  8.73E-08,  avg # of iterations =  3.0

     total cpu time spent up to now is       14.6 secs

     total energy              =     -60.40191152 Ry
     estimated scf accuracy    <       0.00000194 Ry

     iteration # 11     ecut=    75.00 Ry     beta= 0.50
     Davidson diagonalization with overlap
     ethr =  1.08E-08,  avg # of iterations =  5.0

     total cpu time spent up to now is       16.2 secs

     total energy              =     -60.40191230 Ry
     estimated scf accuracy    <       0.00000039 Ry

     iteration # 12     ecut=    75.00 Ry     beta= 0.50
     Davidson diagonalization with overlap
     ethr =  2.18E-09,  avg # of iterations =  4.0

     total cpu time spent up to now is       17.5 secs

     total energy              =     -60.40191241 Ry
     estimated scf accuracy    <       0.00000002 Ry

     iteration # 13     ecut=    75.00 Ry     beta= 0.50
     Davidson diagonalization with overlap
     ethr =  1.26E-10,  avg # of iterations =  2.0

     total cpu time spent up to now is       18.9 secs

     total energy              =     -60.40191240 Ry
     estimated scf accuracy    <       0.00000004 Ry

     iteration # 14     ecut=    75.00 Ry     beta= 0.50
     Davidson diagonalization with overlap
     ethr =  1.26E-10,  avg # of iterations =  4.0

     total cpu time spent up to now is       20.3 secs

     total energy              =     -60.40191240 Ry
     estimated scf accuracy    <          3.9E-10 Ry

     iteration # 15     ecut=    75.00 Ry     beta= 0.50
     Davidson diagonalization with overlap
     ethr =  2.16E-12,  avg # of iterations =  7.0

     total cpu time spent up to now is       22.1 secs

     total energy              =     -60.40191240 Ry
     estimated scf accuracy    <          2.2E-09 Ry

     iteration # 16     ecut=    75.00 Ry     beta= 0.50
     Davidson diagonalization with overlap
     ethr =  2.16E-12,  avg # of iterations =  5.0

     total cpu time spent up to now is       23.7 secs

     total energy              =     -60.40191240 Ry
     estimated scf accuracy    <          1.5E-10 Ry

     iteration # 17     ecut=    75.00 Ry     beta= 0.50
     Davidson diagonalization with overlap
     ethr =  8.28E-13,  avg # of iterations =  2.0

     total cpu time spent up to now is       24.9 secs

     total energy              =     -60.40191240 Ry
     estimated scf accuracy    <          1.8E-10 Ry

     iteration # 18     ecut=    75.00 Ry     beta= 0.50
     Davidson diagonalization with overlap
     ethr =  8.28E-13,  avg # of iterations =  3.0

     total cpu time spent up to now is       26.2 secs

     total energy              =     -60.40191240 Ry
     estimated scf accuracy    <          1.5E-11 Ry

     iteration # 19     ecut=    75.00 Ry     beta= 0.50
     Davidson diagonalization with overlap
     ethr =  1.00E-13,  avg # of iterations =  5.0

     total cpu time spent up to now is       27.7 secs

     total energy              =     -60.40191240 Ry
     estimated scf accuracy    <          6.6E-12 Ry

     iteration # 20     ecut=    75.00 Ry     beta= 0.50
     Davidson diagonalization with overlap
     ethr =  1.00E-13,  avg # of iterations =  3.0

     total cpu time spent up to now is       28.8 secs

     End of self-consistent calculation

          k = 0.0000 0.0000 0.0000 ( 43828 PWs)   bands (ev):

   -21.6201 -18.2755 -14.1061 -11.7423 -10.7124  -9.0703  -8.6832  -7.1521
    -6.0468

     highest occupied level (ev):    -6.0468

!    total energy              =     -60.40191240 Ry
     estimated scf accuracy    <          1.1E-13 Ry

     The total energy is the sum of the following terms:
     one-electron contribution =    -131.77362258 Ry
     hartree contribution      =      67.89256045 Ry
     xc contribution           =     -19.53111215 Ry
     ewald contribution        =      23.01026187 Ry

     convergence has been achieved in  20 iterations

     Forces acting on atoms (cartesian axes, Ry/au):

     atom    1 type  1   force =     0.00184290    0.00184574   -0.00102174
     atom    2 type  1   force =    -0.00482150    0.00133079    0.00465797
     atom    3 type  2   force =    -0.00859745    0.00047631    0.00735920
     atom    4 type  2   force =    -0.00092275   -0.01136906   -0.00442344
     atom    5 type  2   force =     0.00988887   -0.00081839   -0.00826297
     atom    6 type  3   force =     0.00260993    0.00853461    0.00169098

     Total force =     0.024120     Total SCF correction =     0.000001

     Writing output data file ./Vynil_chloride.save/

     init_run     :      1.29s CPU      1.38s WALL (       1 calls)
     electrons    :     26.60s CPU     27.32s WALL (       1 calls)
     forces       :      0.87s CPU      0.90s WALL (       1 calls)

     Called by init_run:
     wfcinit      :      0.35s CPU      0.35s WALL (       1 calls)
     potinit      :      0.56s CPU      0.61s WALL (       1 calls)
     hinit0       :      0.26s CPU      0.28s WALL (       1 calls)

     Called by electrons:
     c_bands      :     13.42s CPU     13.54s WALL (      20 calls)
     sum_band     :      3.67s CPU      3.70s WALL (      20 calls)
     v_of_rho     :      7.32s CPU      7.90s WALL (      21 calls)
     mix_rho      :      2.17s CPU      2.19s WALL (      20 calls)

     Called by c_bands:
     init_us_2    :      0.25s CPU      0.25s WALL (      41 calls)
     regterg      :     13.07s CPU     13.18s WALL (      20 calls)

     Called by *egterg:
     rdiaghg      :      0.05s CPU      0.05s WALL (      93 calls)
     h_psi        :     12.03s CPU     12.14s WALL (      94 calls)
     g_psi        :      0.03s CPU      0.03s WALL (      73 calls)

     Called by h_psi:
     h_psi:calbec :      0.84s CPU      0.85s WALL (      94 calls)
     vloc_psi     :     10.44s CPU     10.54s WALL (      94 calls)
     add_vuspsi   :      0.68s CPU      0.69s WALL (      94 calls)

     General routines
     calbec       :      0.90s CPU      0.90s WALL (      98 calls)
     fft          :      5.01s CPU      5.14s WALL (     176 calls)
     ffts         :      0.56s CPU      0.56s WALL (      20 calls)
     fftw         :      9.80s CPU      9.88s WALL (     708 calls)

     Parallel routines

     PWSCF        :     28.87s CPU     29.74s WALL


   This run was terminated on:   7: 4:41  24May2021            

=------------------------------------------------------------------------------=
   JOB DONE.
=------------------------------------------------------------------------------=
