
     Program PWSCF v.6.7GPU starts on 24May2021 at  4:39: 2 

     This program is part of the open-source Quantum ESPRESSO suite
     for quantum simulation of materials; please cite
         "P. Giannozzi et al., J. Phys.:Condens. Matter 21 395502 (2009);
         "P. Giannozzi et al., J. Phys.:Condens. Matter 29 465901 (2017);
         "P. Giannozzi et al., J. Chem. Phys. 152 154105 (2020);
          URL http://www.quantum-espresso.org", 
     in publications or presentations arising from this work. More details at
     http://www.quantum-espresso.org/quote

     Parallel version (MPI), running on     4 processors

     MPI processes distributed on     1 nodes
     R & G space division:  proc/nbgrp/npool/nimage =       4
     Waiting for input...
     Reading input from standard input
     Message from routine read_cards :
     DEPRECATED: no units specified in CELL_PARAMETERS card

     Current dimensions of program PWSCF are:
     Max number of different atomic species (ntypx) = 10
     Max number of k-points (npk) =  40000
     Max angular momentum in pseudopotentials (lmaxx) =  3

     gamma-point specific algorithms are used

     Subspace diagonalization in iterative solution of the eigenvalue problem:
     one sub-group per band group will be used
     scalapack distributed-memory algorithm (size of sub-group:  2*  2 procs)


     Parallelization info
     --------------------
     sticks:   dense  smooth     PW     G-vecs:    dense   smooth      PW
     Min        1115    1115    276                55933    55933    7000
     Max        1118    1118    278                55934    55934    7006
     Sum        4469    4469   1109               223735   223735   28017

     Using Slab Decomposition



     bravais-lattice index     =            0
     lattice parameter (alat)  =      20.0000  a.u.
     unit-cell volume          =    8000.0000 (a.u.)^3
     number of atoms/cell      =            6
     number of atomic types    =            3
     number of electrons       =        18.00
     number of Kohn-Sham states=            9
     kinetic-energy cutoff     =      35.0000  Ry
     charge density cutoff     =     140.0000  Ry
     scf convergence threshold =      1.0E-12
     mixing beta               =       0.5000
     number of iterations used =            8  plain     mixing
     Exchange-correlation= PBE
                           (   1   4   3   4   0   0   0)

     celldm(1)=  20.000000  celldm(2)=   0.000000  celldm(3)=   0.000000
     celldm(4)=   0.000000  celldm(5)=   0.000000  celldm(6)=   0.000000

     crystal axes: (cart. coord. in units of alat)
               a(1) = (   1.000000   0.000000   0.000000 )  
               a(2) = (   0.000000   1.000000   0.000000 )  
               a(3) = (   0.000000   0.000000   1.000000 )  

     reciprocal axes: (cart. coord. in units 2 pi/alat)
               b(1) = (  1.000000  0.000000  0.000000 )  
               b(2) = (  0.000000  1.000000  0.000000 )  
               b(3) = (  0.000000  0.000000  1.000000 )  


     PseudoPot. # 1 for Br read from file:
     /home/ciga/builds/pseudo_potentials/Br.upf
     MD5 check sum: 41f672ce76ec6f6480a05aabe46aac99
     Pseudo is Norm-conserving + core correction, Zval =  7.0
     Generated using ONCVPSP code by D. R. Hamann
     Using radial grid of 1110 points,  6 beta functions with: 
                l(1) =   0
                l(2) =   0
                l(3) =   1
                l(4) =   1
                l(5) =   2
                l(6) =   2

     PseudoPot. # 2 for C  read from file:
     /home/ciga/builds/pseudo_potentials/C.upf
     MD5 check sum: d80ec9912146af6c4c1760317d1f95e9
     Pseudo is Norm-conserving + core correction, Zval =  4.0
     Generated using ONCVPSP code by D. R. Hamann
     Using radial grid of 1248 points,  4 beta functions with: 
                l(1) =   0
                l(2) =   0
                l(3) =   1
                l(4) =   1

     PseudoPot. # 3 for H  read from file:
     /home/ciga/builds/pseudo_potentials/H.upf
     MD5 check sum: 418cee52d0c413ae40802e6cc37ab9e3
     Pseudo is Norm-conserving, Zval =  1.0
     Generated using ONCVPSP code by D. R. Hamann
     Using radial grid of 1166 points,  3 beta functions with: 
                l(1) =   0
                l(2) =   0
                l(3) =   1

     atomic species   valence    mass     pseudopotential
        Br             7.00    79.90400     Br( 1.00)
        C              4.00    12.01070     C ( 1.00)
        H              1.00     1.00794     H ( 1.00)

     No symmetry found



   Cartesian axes

     site n.     atom                  positions (alat units)
         1           Br  tau(   1) = (   0.5673411   0.4251563   0.5794864  )
         2           C   tau(   2) = (   0.4177051   0.4251884   0.3580370  )
         3           C   tau(   3) = (   0.4177051   0.4251884   0.4832880  )
         4           H   tau(   4) = (   0.3285733   0.4253320   0.3078893  )
         5           H   tau(   5) = (   0.3331493   0.4251884   0.5401281  )
         6           H   tau(   6) = (   0.5035355   0.4251884   0.3031404  )

     number of k points=     1
                       cart. coord. in units 2pi/alat
        k(    1) = (   0.0000000   0.0000000   0.0000000), wk =   2.0000000

     Dense  grid:   111868 G-vectors     FFT dimensions: (  75,  75,  75)

     Estimated max dynamical RAM per process >      28.55 MB

     Estimated total dynamical RAM >     114.19 MB

     Initial potential from superposition of free atoms

     starting charge   17.99986, renormalised to   18.00000

     negative rho (up, down):  2.917E-03 0.000E+00
     Starting wfcs are   15 randomized atomic wfcs

     total cpu time spent up to now is        0.5 secs

     Self-consistent Calculation

     iteration #  1     ecut=    35.00 Ry     beta= 0.50
     Davidson diagonalization with overlap
     ethr =  1.00E-02,  avg # of iterations =  2.0

     negative rho (up, down):  1.309E-03 0.000E+00

     total cpu time spent up to now is        0.8 secs

     total energy              =     -58.76431640 Ry
     estimated scf accuracy    <       0.60547771 Ry

     iteration #  2     ecut=    35.00 Ry     beta= 0.50
     Davidson diagonalization with overlap
     ethr =  3.36E-03,  avg # of iterations =  3.0

     negative rho (up, down):  6.212E-04 0.000E+00

     total cpu time spent up to now is        1.1 secs

     total energy              =     -58.87815257 Ry
     estimated scf accuracy    <       0.06732005 Ry

     iteration #  3     ecut=    35.00 Ry     beta= 0.50
     Davidson diagonalization with overlap
     ethr =  3.74E-04,  avg # of iterations =  2.0

     negative rho (up, down):  1.629E-04 0.000E+00

     total cpu time spent up to now is        1.4 secs

     total energy              =     -58.88226298 Ry
     estimated scf accuracy    <       0.01282826 Ry

     iteration #  4     ecut=    35.00 Ry     beta= 0.50
     Davidson diagonalization with overlap
     ethr =  7.13E-05,  avg # of iterations =  4.0

     negative rho (up, down):  2.200E-05 0.000E+00

     total cpu time spent up to now is        1.8 secs

     total energy              =     -58.88297351 Ry
     estimated scf accuracy    <       0.00486262 Ry

     iteration #  5     ecut=    35.00 Ry     beta= 0.50
     Davidson diagonalization with overlap
     ethr =  2.70E-05,  avg # of iterations =  4.0

     negative rho (up, down):  6.089E-06 0.000E+00

     total cpu time spent up to now is        2.1 secs

     total energy              =     -58.88452031 Ry
     estimated scf accuracy    <       0.00315967 Ry

     iteration #  6     ecut=    35.00 Ry     beta= 0.50
     Davidson diagonalization with overlap
     ethr =  1.76E-05,  avg # of iterations =  3.0

     negative rho (up, down):  1.175E-07 0.000E+00

     total cpu time spent up to now is        2.4 secs

     total energy              =     -58.88473409 Ry
     estimated scf accuracy    <       0.00021816 Ry

     iteration #  7     ecut=    35.00 Ry     beta= 0.50
     Davidson diagonalization with overlap
     ethr =  1.21E-06,  avg # of iterations =  6.0

     negative rho (up, down):  9.237E-08 0.000E+00

     total cpu time spent up to now is        2.7 secs

     total energy              =     -58.88482959 Ry
     estimated scf accuracy    <       0.00022012 Ry

     iteration #  8     ecut=    35.00 Ry     beta= 0.50
     Davidson diagonalization with overlap
     ethr =  1.21E-06,  avg # of iterations =  3.0

     total cpu time spent up to now is        3.0 secs

     total energy              =     -58.88488491 Ry
     estimated scf accuracy    <       0.00000491 Ry

     iteration #  9     ecut=    35.00 Ry     beta= 0.50
     Davidson diagonalization with overlap
     ethr =  2.73E-08,  avg # of iterations =  5.0

     total cpu time spent up to now is        3.4 secs

     total energy              =     -58.88488279 Ry
     estimated scf accuracy    <       0.00001055 Ry

     iteration # 10     ecut=    35.00 Ry     beta= 0.50
     Davidson diagonalization with overlap
     ethr =  2.73E-08,  avg # of iterations =  4.0

     total cpu time spent up to now is        3.7 secs

     total energy              =     -58.88488473 Ry
     estimated scf accuracy    <       0.00000004 Ry

     iteration # 11     ecut=    35.00 Ry     beta= 0.50
     Davidson diagonalization with overlap
     ethr =  2.31E-10,  avg # of iterations =  7.0

     total cpu time spent up to now is        4.2 secs

     total energy              =     -58.88488478 Ry
     estimated scf accuracy    <       0.00000016 Ry

     iteration # 12     ecut=    35.00 Ry     beta= 0.50
     Davidson diagonalization with overlap
     ethr =  2.31E-10,  avg # of iterations =  3.0

     total cpu time spent up to now is        4.5 secs

     total energy              =     -58.88488479 Ry
     estimated scf accuracy    <          8.2E-09 Ry

     iteration # 13     ecut=    35.00 Ry     beta= 0.50
     Davidson diagonalization with overlap
     ethr =  4.54E-11,  avg # of iterations =  4.0

     total cpu time spent up to now is        4.8 secs

     total energy              =     -58.88488480 Ry
     estimated scf accuracy    <          6.7E-10 Ry

     iteration # 14     ecut=    35.00 Ry     beta= 0.50
     Davidson diagonalization with overlap
     ethr =  3.73E-12,  avg # of iterations =  3.0

     total cpu time spent up to now is        5.2 secs

     total energy              =     -58.88488480 Ry
     estimated scf accuracy    <          2.8E-11 Ry

     iteration # 15     ecut=    35.00 Ry     beta= 0.50
     Davidson diagonalization with overlap
     ethr =  1.56E-13,  avg # of iterations =  4.0

     total cpu time spent up to now is        5.5 secs

     total energy              =     -58.88488480 Ry
     estimated scf accuracy    <          4.1E-11 Ry

     iteration # 16     ecut=    35.00 Ry     beta= 0.50
     Davidson diagonalization with overlap
     ethr =  1.56E-13,  avg # of iterations =  4.0

     total cpu time spent up to now is        5.8 secs

     total energy              =     -58.88488480 Ry
     estimated scf accuracy    <          4.8E-12 Ry

     iteration # 17     ecut=    35.00 Ry     beta= 0.50
     Davidson diagonalization with overlap
     ethr =  1.00E-13,  avg # of iterations =  3.0

     total cpu time spent up to now is        6.1 secs

     End of self-consistent calculation

          k = 0.0000 0.0000 0.0000 ( 14009 PWs)   bands (ev):

   -20.8030 -18.3117 -14.0903 -11.4921 -10.4529  -8.6763  -8.0537  -6.5835
    -5.8521

     highest occupied level (ev):    -5.8521

!    total energy              =     -58.88488480 Ry
     estimated scf accuracy    <          9.0E-13 Ry

     The total energy is the sum of the following terms:
     one-electron contribution =    -121.35586432 Ry
     hartree contribution      =      62.59458164 Ry
     xc contribution           =     -20.85622253 Ry
     ewald contribution        =      20.73262042 Ry

     convergence has been achieved in  17 iterations

     Forces acting on atoms (cartesian axes, Ry/au):

     atom    1 type  1   force =     0.01367874   -0.00003654    0.01229623
     atom    2 type  2   force =    -0.00293866    0.00015377    0.00464436
     atom    3 type  2   force =     0.00119260   -0.00004460   -0.01243952
     atom    4 type  3   force =    -0.01355392   -0.00008840   -0.00732881
     atom    5 type  3   force =    -0.01416472    0.00003606    0.01347401
     atom    6 type  3   force =     0.01578596   -0.00002030   -0.01064626

     Total force =     0.038818     Total SCF correction =     0.000001

     Writing output data file ./Vynil_bromide.save/

     init_run     :      0.40s CPU      0.43s WALL (       1 calls)
     electrons    :      5.38s CPU      5.53s WALL (       1 calls)
     forces       :      0.27s CPU      0.27s WALL (       1 calls)

     Called by init_run:
     wfcinit      :      0.07s CPU      0.08s WALL (       1 calls)
     potinit      :      0.20s CPU      0.21s WALL (       1 calls)
     hinit0       :      0.11s CPU      0.11s WALL (       1 calls)

     Called by electrons:
     c_bands      :      2.81s CPU      2.84s WALL (      17 calls)
     sum_band     :      0.71s CPU      0.71s WALL (      17 calls)
     v_of_rho     :      1.54s CPU      1.63s WALL (      18 calls)
     mix_rho      :      0.36s CPU      0.38s WALL (      17 calls)

     Called by c_bands:
     init_us_2    :      0.07s CPU      0.07s WALL (      35 calls)
     regterg      :      2.71s CPU      2.74s WALL (      17 calls)

     Called by *egterg:
     rdiaghg      :      0.04s CPU      0.04s WALL (      81 calls)
     h_psi        :      2.45s CPU      2.48s WALL (      82 calls)
     g_psi        :      0.01s CPU      0.01s WALL (      64 calls)

     Called by h_psi:
     h_psi:calbec :      0.26s CPU      0.26s WALL (      82 calls)
     vloc_psi     :      1.99s CPU      2.02s WALL (      82 calls)
     add_vuspsi   :      0.19s CPU      0.19s WALL (      82 calls)

     General routines
     calbec       :      0.28s CPU      0.28s WALL (      86 calls)
     fft          :      1.13s CPU      1.15s WALL (     152 calls)
     ffts         :      0.11s CPU      0.11s WALL (      17 calls)
     fftw         :      1.84s CPU      1.87s WALL (     625 calls)

     Parallel routines

     PWSCF        :      6.16s CPU      6.35s WALL


   This run was terminated on:   4:39: 8  24May2021            

=------------------------------------------------------------------------------=
   JOB DONE.
=------------------------------------------------------------------------------=
