
     Program PWSCF v.6.7GPU starts on 24May2021 at  7: 3: 3 

     This program is part of the open-source Quantum ESPRESSO suite
     for quantum simulation of materials; please cite
         "P. Giannozzi et al., J. Phys.:Condens. Matter 21 395502 (2009);
         "P. Giannozzi et al., J. Phys.:Condens. Matter 29 465901 (2017);
         "P. Giannozzi et al., J. Chem. Phys. 152 154105 (2020);
          URL http://www.quantum-espresso.org", 
     in publications or presentations arising from this work. More details at
     http://www.quantum-espresso.org/quote

     Parallel version (MPI), running on     4 processors

     MPI processes distributed on     1 nodes
     R & G space division:  proc/nbgrp/npool/nimage =       4
     Waiting for input...
     Reading input from standard input
     Message from routine read_cards :
     DEPRECATED: no units specified in CELL_PARAMETERS card

     Current dimensions of program PWSCF are:
     Max number of different atomic species (ntypx) = 10
     Max number of k-points (npk) =  40000
     Max angular momentum in pseudopotentials (lmaxx) =  3

     gamma-point specific algorithms are used

     Subspace diagonalization in iterative solution of the eigenvalue problem:
     one sub-group per band group will be used
     scalapack distributed-memory algorithm (size of sub-group:  2*  2 procs)


     Parallelization info
     --------------------
     sticks:   dense  smooth     PW     G-vecs:    dense   smooth      PW
     Min        1910    1910    473               125614   125614   15665
     Max        1912    1912    476               125624   125624   15668
     Sum        7645    7645   1901               502479   502479   62669

     Using Slab Decomposition



     bravais-lattice index     =            0
     lattice parameter (alat)  =      20.0000  a.u.
     unit-cell volume          =    8000.0000 (a.u.)^3
     number of atoms/cell      =            6
     number of atomic types    =            3
     number of electrons       =        18.00
     number of Kohn-Sham states=            9
     kinetic-energy cutoff     =      60.0000  Ry
     charge density cutoff     =     240.0000  Ry
     scf convergence threshold =      1.0E-12
     mixing beta               =       0.5000
     number of iterations used =            8  plain     mixing
     Exchange-correlation= PBE
                           (   1   4   3   4   0   0   0)

     celldm(1)=  20.000000  celldm(2)=   0.000000  celldm(3)=   0.000000
     celldm(4)=   0.000000  celldm(5)=   0.000000  celldm(6)=   0.000000

     crystal axes: (cart. coord. in units of alat)
               a(1) = (   1.000000   0.000000   0.000000 )  
               a(2) = (   0.000000   1.000000   0.000000 )  
               a(3) = (   0.000000   0.000000   1.000000 )  

     reciprocal axes: (cart. coord. in units 2 pi/alat)
               b(1) = (  1.000000  0.000000  0.000000 )  
               b(2) = (  0.000000  1.000000  0.000000 )  
               b(3) = (  0.000000  0.000000  1.000000 )  


     PseudoPot. # 1 for C  read from file:
     /home/ciga/builds/pseudo_potentials/C.upf
     MD5 check sum: d80ec9912146af6c4c1760317d1f95e9
     Pseudo is Norm-conserving + core correction, Zval =  4.0
     Generated using ONCVPSP code by D. R. Hamann
     Using radial grid of 1248 points,  4 beta functions with: 
                l(1) =   0
                l(2) =   0
                l(3) =   1
                l(4) =   1

     PseudoPot. # 2 for H  read from file:
     /home/ciga/builds/pseudo_potentials/H.upf
     MD5 check sum: 418cee52d0c413ae40802e6cc37ab9e3
     Pseudo is Norm-conserving, Zval =  1.0
     Generated using ONCVPSP code by D. R. Hamann
     Using radial grid of 1166 points,  3 beta functions with: 
                l(1) =   0
                l(2) =   0
                l(3) =   1

     PseudoPot. # 3 for Cl read from file:
     /home/ciga/builds/pseudo_potentials/Cl.upf
     MD5 check sum: b1ddb435c2952724bdf458cc656d2c80
     Pseudo is Norm-conserving + core correction, Zval =  7.0
     Generated using ONCVPSP code by D. R. Hamann
     Using radial grid of 1028 points,  6 beta functions with: 
                l(1) =   0
                l(2) =   0
                l(3) =   1
                l(4) =   1
                l(5) =   2
                l(6) =   2

     atomic species   valence    mass     pseudopotential
        C              4.00    12.01070     C ( 1.00)
        H              1.00     1.00794     H ( 1.00)
        Cl             7.00    35.45300     Cl( 1.00)

     No symmetry found



   Cartesian axes

     site n.     atom                  positions (alat units)
         1           C   tau(   1) = (  -0.0523705  -0.0420805   0.0104952  )
         2           C   tau(   2) = (   0.0351729   0.0413883  -0.0221608  )
         3           H   tau(   3) = (  -0.1249197  -0.0199142   0.0786069  )
         4           H   tau(   4) = (  -0.0513719  -0.1346662  -0.0321760  )
         5           H   tau(   5) = (   0.1089667   0.0228062  -0.0899078  )
         6           Cl  tau(   6) = (   0.0416146   0.1916906   0.0407987  )

     number of k points=     1
                       cart. coord. in units 2pi/alat
        k(    1) = (   0.0000000   0.0000000   0.0000000), wk =   2.0000000

     Dense  grid:   251240 G-vectors     FFT dimensions: ( 100, 100, 100)

     Estimated max dynamical RAM per process >      62.11 MB

     Estimated total dynamical RAM >     248.44 MB

     Initial potential from superposition of free atoms

     starting charge   17.99988, renormalised to   18.00000

     negative rho (up, down):  2.873E-04 0.000E+00
     Starting wfcs are   15 randomized atomic wfcs

     total cpu time spent up to now is        1.0 secs

     Self-consistent Calculation

     iteration #  1     ecut=    60.00 Ry     beta= 0.50
     Davidson diagonalization with overlap
     ethr =  1.00E-02,  avg # of iterations =  2.0

     negative rho (up, down):  1.129E-04 0.000E+00

     total cpu time spent up to now is        1.8 secs

     total energy              =     -60.25772220 Ry
     estimated scf accuracy    <       0.66796108 Ry

     iteration #  2     ecut=    60.00 Ry     beta= 0.50
     Davidson diagonalization with overlap
     ethr =  3.71E-03,  avg # of iterations =  3.0

     negative rho (up, down):  4.629E-05 0.000E+00

     total cpu time spent up to now is        2.6 secs

     total energy              =     -60.38771198 Ry
     estimated scf accuracy    <       0.07671366 Ry

     iteration #  3     ecut=    60.00 Ry     beta= 0.50
     Davidson diagonalization with overlap
     ethr =  4.26E-04,  avg # of iterations =  2.0

     negative rho (up, down):  1.054E-05 0.000E+00

     total cpu time spent up to now is        3.3 secs

     total energy              =     -60.39111157 Ry
     estimated scf accuracy    <       0.01371135 Ry

     iteration #  4     ecut=    60.00 Ry     beta= 0.50
     Davidson diagonalization with overlap
     ethr =  7.62E-05,  avg # of iterations =  4.0

     negative rho (up, down):  2.899E-06 0.000E+00

     total cpu time spent up to now is        4.1 secs

     total energy              =     -60.39148507 Ry
     estimated scf accuracy    <       0.00872004 Ry

     iteration #  5     ecut=    60.00 Ry     beta= 0.50
     Davidson diagonalization with overlap
     ethr =  4.84E-05,  avg # of iterations =  5.0

     negative rho (up, down):  5.030E-07 0.000E+00

     total cpu time spent up to now is        5.0 secs

     total energy              =     -60.39430902 Ry
     estimated scf accuracy    <       0.00848585 Ry

     iteration #  6     ecut=    60.00 Ry     beta= 0.50
     Davidson diagonalization with overlap
     ethr =  4.71E-05,  avg # of iterations =  3.0

     negative rho (up, down):  3.257E-08 0.000E+00

     total cpu time spent up to now is        5.7 secs

     total energy              =     -60.39456623 Ry
     estimated scf accuracy    <       0.00099447 Ry

     iteration #  7     ecut=    60.00 Ry     beta= 0.50
     Davidson diagonalization with overlap
     ethr =  5.52E-06,  avg # of iterations =  6.0

     negative rho (up, down):  1.862E-08 0.000E+00

     total cpu time spent up to now is        6.6 secs

     total energy              =     -60.39501921 Ry
     estimated scf accuracy    <       0.00041454 Ry

     iteration #  8     ecut=    60.00 Ry     beta= 0.50
     Davidson diagonalization with overlap
     ethr =  2.30E-06,  avg # of iterations =  3.0

     total cpu time spent up to now is        7.3 secs

     total energy              =     -60.39503059 Ry
     estimated scf accuracy    <       0.00006186 Ry

     iteration #  9     ecut=    60.00 Ry     beta= 0.50
     Davidson diagonalization with overlap
     ethr =  3.44E-07,  avg # of iterations =  5.0

     total cpu time spent up to now is        8.2 secs

     total energy              =     -60.39505748 Ry
     estimated scf accuracy    <       0.00000792 Ry

     iteration # 10     ecut=    60.00 Ry     beta= 0.50
     Davidson diagonalization with overlap
     ethr =  4.40E-08,  avg # of iterations =  2.0

     total cpu time spent up to now is        8.9 secs

     total energy              =     -60.39505583 Ry
     estimated scf accuracy    <       0.00000446 Ry

     iteration # 11     ecut=    60.00 Ry     beta= 0.50
     Davidson diagonalization with overlap
     ethr =  2.48E-08,  avg # of iterations =  3.0

     total cpu time spent up to now is        9.7 secs

     total energy              =     -60.39505672 Ry
     estimated scf accuracy    <       0.00000002 Ry

     iteration # 12     ecut=    60.00 Ry     beta= 0.50
     Davidson diagonalization with overlap
     ethr =  9.98E-11,  avg # of iterations =  6.0

     total cpu time spent up to now is       10.8 secs

     total energy              =     -60.39505674 Ry
     estimated scf accuracy    <       0.00000003 Ry

     iteration # 13     ecut=    60.00 Ry     beta= 0.50
     Davidson diagonalization with overlap
     ethr =  9.98E-11,  avg # of iterations =  3.0

     total cpu time spent up to now is       11.6 secs

     total energy              =     -60.39505675 Ry
     estimated scf accuracy    <          1.2E-09 Ry

     iteration # 14     ecut=    60.00 Ry     beta= 0.50
     Davidson diagonalization with overlap
     ethr =  6.74E-12,  avg # of iterations =  5.0

     total cpu time spent up to now is       12.4 secs

     total energy              =     -60.39505675 Ry
     estimated scf accuracy    <          1.7E-10 Ry

     iteration # 15     ecut=    60.00 Ry     beta= 0.50
     Davidson diagonalization with overlap
     ethr =  9.37E-13,  avg # of iterations =  4.0

     total cpu time spent up to now is       13.3 secs

     total energy              =     -60.39505675 Ry
     estimated scf accuracy    <          5.0E-11 Ry

     iteration # 16     ecut=    60.00 Ry     beta= 0.50
     Davidson diagonalization with overlap
     ethr =  2.80E-13,  avg # of iterations =  5.0

     total cpu time spent up to now is       14.2 secs

     total energy              =     -60.39505675 Ry
     estimated scf accuracy    <          5.5E-11 Ry

     iteration # 17     ecut=    60.00 Ry     beta= 0.50
     Davidson diagonalization with overlap
     ethr =  2.80E-13,  avg # of iterations =  3.0

     total cpu time spent up to now is       14.9 secs

     total energy              =     -60.39505675 Ry
     estimated scf accuracy    <          1.1E-11 Ry

     iteration # 18     ecut=    60.00 Ry     beta= 0.50
     Davidson diagonalization with overlap
     ethr =  1.00E-13,  avg # of iterations =  5.0

     total cpu time spent up to now is       15.7 secs

     total energy              =     -60.39505675 Ry
     estimated scf accuracy    <          2.0E-12 Ry

     iteration # 19     ecut=    60.00 Ry     beta= 0.50
     Davidson diagonalization with overlap
     ethr =  1.00E-13,  avg # of iterations =  1.0

     total cpu time spent up to now is       16.4 secs

     End of self-consistent calculation

          k = 0.0000 0.0000 0.0000 ( 31335 PWs)   bands (ev):

   -21.6233 -18.2826 -14.1104 -11.7427 -10.7130  -9.0696  -8.6832  -7.1521
    -6.0460

     highest occupied level (ev):    -6.0460

!    total energy              =     -60.39505675 Ry
     estimated scf accuracy    <          8.2E-13 Ry

     The total energy is the sum of the following terms:
     one-electron contribution =    -131.76186175 Ry
     hartree contribution      =      67.88469036 Ry
     xc contribution           =     -19.52814723 Ry
     ewald contribution        =      23.01026187 Ry

     convergence has been achieved in  19 iterations

     Forces acting on atoms (cartesian axes, Ry/au):

     atom    1 type  1   force =     0.00137144    0.00146525   -0.00079229
     atom    2 type  1   force =    -0.00440718    0.00213861    0.00466881
     atom    3 type  2   force =    -0.00906555    0.00061035    0.00779545
     atom    4 type  2   force =    -0.00090710   -0.01195290   -0.00470291
     atom    5 type  2   force =     0.01039657   -0.00091083   -0.00871432
     atom    6 type  3   force =     0.00261182    0.00864952    0.00174526

     Total force =     0.025082     Total SCF correction =     0.000001

     Writing output data file ./Vynil_chloride.save/

     init_run     :      0.87s CPU      0.93s WALL (       1 calls)
     electrons    :     14.92s CPU     15.32s WALL (       1 calls)
     forces       :      0.55s CPU      0.58s WALL (       1 calls)

     Called by init_run:
     wfcinit      :      0.21s CPU      0.21s WALL (       1 calls)
     potinit      :      0.38s CPU      0.42s WALL (       1 calls)
     hinit0       :      0.19s CPU      0.21s WALL (       1 calls)

     Called by electrons:
     c_bands      :      7.36s CPU      7.44s WALL (      19 calls)
     sum_band     :      2.05s CPU      2.07s WALL (      19 calls)
     v_of_rho     :      4.21s CPU      4.51s WALL (      20 calls)
     mix_rho      :      1.34s CPU      1.37s WALL (      19 calls)

     Called by c_bands:
     init_us_2    :      0.17s CPU      0.17s WALL (      39 calls)
     regterg      :      7.13s CPU      7.20s WALL (      19 calls)

     Called by *egterg:
     rdiaghg      :      0.04s CPU      0.04s WALL (      89 calls)
     h_psi        :      6.49s CPU      6.56s WALL (      90 calls)
     g_psi        :      0.02s CPU      0.02s WALL (      70 calls)

     Called by h_psi:
     h_psi:calbec :      0.58s CPU      0.58s WALL (      90 calls)
     vloc_psi     :      5.42s CPU      5.48s WALL (      90 calls)
     add_vuspsi   :      0.46s CPU      0.46s WALL (      90 calls)

     General routines
     calbec       :      0.62s CPU      0.62s WALL (      94 calls)
     fft          :      2.94s CPU      3.03s WALL (     168 calls)
     ffts         :      0.33s CPU      0.34s WALL (      19 calls)
     fftw         :      5.01s CPU      5.06s WALL (     675 calls)

     Parallel routines

     PWSCF        :     16.47s CPU     16.98s WALL


   This run was terminated on:   7: 3:20  24May2021            

=------------------------------------------------------------------------------=
   JOB DONE.
=------------------------------------------------------------------------------=
