
     Program PWSCF v.6.7GPU starts on 24May2021 at  7: 2:47 

     This program is part of the open-source Quantum ESPRESSO suite
     for quantum simulation of materials; please cite
         "P. Giannozzi et al., J. Phys.:Condens. Matter 21 395502 (2009);
         "P. Giannozzi et al., J. Phys.:Condens. Matter 29 465901 (2017);
         "P. Giannozzi et al., J. Chem. Phys. 152 154105 (2020);
          URL http://www.quantum-espresso.org", 
     in publications or presentations arising from this work. More details at
     http://www.quantum-espresso.org/quote

     Parallel version (MPI), running on     4 processors

     MPI processes distributed on     1 nodes
     R & G space division:  proc/nbgrp/npool/nimage =       4
     Waiting for input...
     Reading input from standard input
     Message from routine read_cards :
     DEPRECATED: no units specified in CELL_PARAMETERS card

     Current dimensions of program PWSCF are:
     Max number of different atomic species (ntypx) = 10
     Max number of k-points (npk) =  40000
     Max angular momentum in pseudopotentials (lmaxx) =  3

     gamma-point specific algorithms are used

     Subspace diagonalization in iterative solution of the eigenvalue problem:
     one sub-group per band group will be used
     scalapack distributed-memory algorithm (size of sub-group:  2*  2 procs)


     Parallelization info
     --------------------
     sticks:   dense  smooth     PW     G-vecs:    dense   smooth      PW
     Min        1753    1753    438               110351   110351   13793
     Max        1756    1756    440               110356   110356   13796
     Sum        7017    7017   1757               441415   441415   55179

     Using Slab Decomposition



     bravais-lattice index     =            0
     lattice parameter (alat)  =      20.0000  a.u.
     unit-cell volume          =    8000.0000 (a.u.)^3
     number of atoms/cell      =            6
     number of atomic types    =            3
     number of electrons       =        18.00
     number of Kohn-Sham states=            9
     kinetic-energy cutoff     =      55.0000  Ry
     charge density cutoff     =     220.0000  Ry
     scf convergence threshold =      1.0E-12
     mixing beta               =       0.5000
     number of iterations used =            8  plain     mixing
     Exchange-correlation= PBE
                           (   1   4   3   4   0   0   0)

     celldm(1)=  20.000000  celldm(2)=   0.000000  celldm(3)=   0.000000
     celldm(4)=   0.000000  celldm(5)=   0.000000  celldm(6)=   0.000000

     crystal axes: (cart. coord. in units of alat)
               a(1) = (   1.000000   0.000000   0.000000 )  
               a(2) = (   0.000000   1.000000   0.000000 )  
               a(3) = (   0.000000   0.000000   1.000000 )  

     reciprocal axes: (cart. coord. in units 2 pi/alat)
               b(1) = (  1.000000  0.000000  0.000000 )  
               b(2) = (  0.000000  1.000000  0.000000 )  
               b(3) = (  0.000000  0.000000  1.000000 )  


     PseudoPot. # 1 for C  read from file:
     /home/ciga/builds/pseudo_potentials/C.upf
     MD5 check sum: d80ec9912146af6c4c1760317d1f95e9
     Pseudo is Norm-conserving + core correction, Zval =  4.0
     Generated using ONCVPSP code by D. R. Hamann
     Using radial grid of 1248 points,  4 beta functions with: 
                l(1) =   0
                l(2) =   0
                l(3) =   1
                l(4) =   1

     PseudoPot. # 2 for H  read from file:
     /home/ciga/builds/pseudo_potentials/H.upf
     MD5 check sum: 418cee52d0c413ae40802e6cc37ab9e3
     Pseudo is Norm-conserving, Zval =  1.0
     Generated using ONCVPSP code by D. R. Hamann
     Using radial grid of 1166 points,  3 beta functions with: 
                l(1) =   0
                l(2) =   0
                l(3) =   1

     PseudoPot. # 3 for Cl read from file:
     /home/ciga/builds/pseudo_potentials/Cl.upf
     MD5 check sum: b1ddb435c2952724bdf458cc656d2c80
     Pseudo is Norm-conserving + core correction, Zval =  7.0
     Generated using ONCVPSP code by D. R. Hamann
     Using radial grid of 1028 points,  6 beta functions with: 
                l(1) =   0
                l(2) =   0
                l(3) =   1
                l(4) =   1
                l(5) =   2
                l(6) =   2

     atomic species   valence    mass     pseudopotential
        C              4.00    12.01070     C ( 1.00)
        H              1.00     1.00794     H ( 1.00)
        Cl             7.00    35.45300     Cl( 1.00)

     No symmetry found



   Cartesian axes

     site n.     atom                  positions (alat units)
         1           C   tau(   1) = (  -0.0523705  -0.0420805   0.0104952  )
         2           C   tau(   2) = (   0.0351729   0.0413883  -0.0221608  )
         3           H   tau(   3) = (  -0.1249197  -0.0199142   0.0786069  )
         4           H   tau(   4) = (  -0.0513719  -0.1346662  -0.0321760  )
         5           H   tau(   5) = (   0.1089667   0.0228062  -0.0899078  )
         6           Cl  tau(   6) = (   0.0416146   0.1916906   0.0407987  )

     number of k points=     1
                       cart. coord. in units 2pi/alat
        k(    1) = (   0.0000000   0.0000000   0.0000000), wk =   2.0000000

     Dense  grid:   220708 G-vectors     FFT dimensions: (  96,  96,  96)

     Estimated max dynamical RAM per process >      54.96 MB

     Estimated total dynamical RAM >     219.83 MB

     Initial potential from superposition of free atoms

     starting charge   17.99988, renormalised to   18.00000

     negative rho (up, down):  4.587E-04 0.000E+00
     Starting wfcs are   15 randomized atomic wfcs

     total cpu time spent up to now is        0.9 secs

     Self-consistent Calculation

     iteration #  1     ecut=    55.00 Ry     beta= 0.50
     Davidson diagonalization with overlap
     ethr =  1.00E-02,  avg # of iterations =  2.0

     negative rho (up, down):  1.838E-04 0.000E+00

     total cpu time spent up to now is        1.6 secs

     total energy              =     -60.25115370 Ry
     estimated scf accuracy    <       0.66227684 Ry

     iteration #  2     ecut=    55.00 Ry     beta= 0.50
     Davidson diagonalization with overlap
     ethr =  3.68E-03,  avg # of iterations =  3.0

     negative rho (up, down):  7.941E-05 0.000E+00

     total cpu time spent up to now is        2.3 secs

     total energy              =     -60.37992456 Ry
     estimated scf accuracy    <       0.07562659 Ry

     iteration #  3     ecut=    55.00 Ry     beta= 0.50
     Davidson diagonalization with overlap
     ethr =  4.20E-04,  avg # of iterations =  2.0

     negative rho (up, down):  1.949E-05 0.000E+00

     total cpu time spent up to now is        2.9 secs

     total energy              =     -60.38352274 Ry
     estimated scf accuracy    <       0.01352387 Ry

     iteration #  4     ecut=    55.00 Ry     beta= 0.50
     Davidson diagonalization with overlap
     ethr =  7.51E-05,  avg # of iterations =  4.0

     negative rho (up, down):  5.362E-06 0.000E+00

     total cpu time spent up to now is        3.6 secs

     total energy              =     -60.38394971 Ry
     estimated scf accuracy    <       0.00852376 Ry

     iteration #  5     ecut=    55.00 Ry     beta= 0.50
     Davidson diagonalization with overlap
     ethr =  4.74E-05,  avg # of iterations =  5.0

     negative rho (up, down):  8.331E-07 0.000E+00

     total cpu time spent up to now is        4.4 secs

     total energy              =     -60.38668630 Ry
     estimated scf accuracy    <       0.00808647 Ry

     iteration #  6     ecut=    55.00 Ry     beta= 0.50
     Davidson diagonalization with overlap
     ethr =  4.49E-05,  avg # of iterations =  2.0

     negative rho (up, down):  5.092E-08 0.000E+00

     total cpu time spent up to now is        5.0 secs

     total energy              =     -60.38663500 Ry
     estimated scf accuracy    <       0.00141012 Ry

     iteration #  7     ecut=    55.00 Ry     beta= 0.50
     Davidson diagonalization with overlap
     ethr =  7.83E-06,  avg # of iterations =  5.0

     negative rho (up, down):  3.484E-08 0.000E+00

     total cpu time spent up to now is        5.8 secs

     total energy              =     -60.38741051 Ry
     estimated scf accuracy    <       0.00053337 Ry

     iteration #  8     ecut=    55.00 Ry     beta= 0.50
     Davidson diagonalization with overlap
     ethr =  2.96E-06,  avg # of iterations =  2.0

     total cpu time spent up to now is        6.4 secs

     total energy              =     -60.38737132 Ry
     estimated scf accuracy    <       0.00015903 Ry

     iteration #  9     ecut=    55.00 Ry     beta= 0.50
     Davidson diagonalization with overlap
     ethr =  8.83E-07,  avg # of iterations =  5.0

     total cpu time spent up to now is        7.1 secs

     total energy              =     -60.38741909 Ry
     estimated scf accuracy    <       0.00001063 Ry

     iteration # 10     ecut=    55.00 Ry     beta= 0.50
     Davidson diagonalization with overlap
     ethr =  5.91E-08,  avg # of iterations =  4.0

     total cpu time spent up to now is        7.9 secs

     total energy              =     -60.38742091 Ry
     estimated scf accuracy    <       0.00000019 Ry

     iteration # 11     ecut=    55.00 Ry     beta= 0.50
     Davidson diagonalization with overlap
     ethr =  1.08E-09,  avg # of iterations =  5.0

     total cpu time spent up to now is        8.7 secs

     total energy              =     -60.38742102 Ry
     estimated scf accuracy    <       0.00000039 Ry

     iteration # 12     ecut=    55.00 Ry     beta= 0.50
     Davidson diagonalization with overlap
     ethr =  1.08E-09,  avg # of iterations =  3.0

     total cpu time spent up to now is        9.4 secs

     total energy              =     -60.38742106 Ry
     estimated scf accuracy    <       0.00000001 Ry

     iteration # 13     ecut=    55.00 Ry     beta= 0.50
     Davidson diagonalization with overlap
     ethr =  8.27E-11,  avg # of iterations =  6.0

     total cpu time spent up to now is       10.3 secs

     total energy              =     -60.38742107 Ry
     estimated scf accuracy    <       0.00000004 Ry

     iteration # 14     ecut=    55.00 Ry     beta= 0.50
     Davidson diagonalization with overlap
     ethr =  8.27E-11,  avg # of iterations =  4.0

     total cpu time spent up to now is       11.0 secs

     total energy              =     -60.38742107 Ry
     estimated scf accuracy    <          2.0E-10 Ry

     iteration # 15     ecut=    55.00 Ry     beta= 0.50
     Davidson diagonalization with overlap
     ethr =  1.12E-12,  avg # of iterations =  6.0

     total cpu time spent up to now is       12.0 secs

     total energy              =     -60.38742107 Ry
     estimated scf accuracy    <          2.2E-09 Ry

     iteration # 16     ecut=    55.00 Ry     beta= 0.50
     Davidson diagonalization with overlap
     ethr =  1.12E-12,  avg # of iterations =  5.0

     total cpu time spent up to now is       12.8 secs

     total energy              =     -60.38742107 Ry
     estimated scf accuracy    <          5.8E-11 Ry

     iteration # 17     ecut=    55.00 Ry     beta= 0.50
     Davidson diagonalization with overlap
     ethr =  3.24E-13,  avg # of iterations =  5.0

     total cpu time spent up to now is       13.6 secs

     total energy              =     -60.38742107 Ry
     estimated scf accuracy    <          4.3E-11 Ry

     iteration # 18     ecut=    55.00 Ry     beta= 0.50
     Davidson diagonalization with overlap
     ethr =  2.40E-13,  avg # of iterations =  3.0

     total cpu time spent up to now is       14.3 secs

     total energy              =     -60.38742107 Ry
     estimated scf accuracy    <          1.4E-12 Ry

     iteration # 19     ecut=    55.00 Ry     beta= 0.50
     Davidson diagonalization with overlap
     ethr =  1.00E-13,  avg # of iterations =  5.0

     total cpu time spent up to now is       15.0 secs

     total energy              =     -60.38742107 Ry
     estimated scf accuracy    <          4.2E-12 Ry

     iteration # 20     ecut=    55.00 Ry     beta= 0.50
     Davidson diagonalization with overlap
     ethr =  1.00E-13,  avg # of iterations =  1.0

     total cpu time spent up to now is       15.6 secs

     total energy              =     -60.38742107 Ry
     estimated scf accuracy    <          1.1E-12 Ry

     iteration # 21     ecut=    55.00 Ry     beta= 0.50
     Davidson diagonalization with overlap
     ethr =  1.00E-13,  avg # of iterations =  1.0

     total cpu time spent up to now is       16.1 secs

     End of self-consistent calculation

          k = 0.0000 0.0000 0.0000 ( 27590 PWs)   bands (ev):

   -21.6265 -18.2894 -14.1143 -11.7426 -10.7124  -9.0685  -8.6832  -7.1518
    -6.0452

     highest occupied level (ev):    -6.0452

!    total energy              =     -60.38742107 Ry
     estimated scf accuracy    <          1.4E-13 Ry

     The total energy is the sum of the following terms:
     one-electron contribution =    -131.74885412 Ry
     hartree contribution      =      67.87634217 Ry
     xc contribution           =     -19.52517088 Ry
     ewald contribution        =      23.01026176 Ry

     convergence has been achieved in  21 iterations

     Forces acting on atoms (cartesian axes, Ry/au):

     atom    1 type  1   force =    -0.00050987   -0.00029380   -0.00016519
     atom    2 type  1   force =    -0.00257177    0.00381619    0.00403673
     atom    3 type  2   force =    -0.00908324    0.00063973    0.00782177
     atom    4 type  2   force =    -0.00087276   -0.01200844   -0.00475203
     atom    5 type  2   force =     0.01041958   -0.00091151   -0.00873266
     atom    6 type  3   force =     0.00261805    0.00875782    0.00179137

     Total force =     0.024938     Total SCF correction =     0.000001

     Writing output data file ./Vynil_chloride.save/

     init_run     :      0.78s CPU      0.83s WALL (       1 calls)
     electrons    :     14.86s CPU     15.20s WALL (       1 calls)
     forces       :      0.49s CPU      0.51s WALL (       1 calls)

     Called by init_run:
     wfcinit      :      0.18s CPU      0.18s WALL (       1 calls)
     potinit      :      0.35s CPU      0.38s WALL (       1 calls)
     hinit0       :      0.18s CPU      0.19s WALL (       1 calls)

     Called by electrons:
     c_bands      :      7.40s CPU      7.46s WALL (      21 calls)
     sum_band     :      2.01s CPU      2.02s WALL (      21 calls)
     v_of_rho     :      4.19s CPU      4.44s WALL (      22 calls)
     mix_rho      :      1.28s CPU      1.31s WALL (      21 calls)

     Called by c_bands:
     init_us_2    :      0.16s CPU      0.16s WALL (      43 calls)
     regterg      :      7.17s CPU      7.22s WALL (      21 calls)

     Called by *egterg:
     rdiaghg      :      0.05s CPU      0.05s WALL (      99 calls)
     h_psi        :      6.47s CPU      6.52s WALL (     100 calls)
     g_psi        :      0.02s CPU      0.02s WALL (      78 calls)

     Called by h_psi:
     h_psi:calbec :      0.60s CPU      0.60s WALL (     100 calls)
     vloc_psi     :      5.37s CPU      5.41s WALL (     100 calls)
     add_vuspsi   :      0.47s CPU      0.47s WALL (     100 calls)

     General routines
     calbec       :      0.63s CPU      0.63s WALL (     104 calls)
     fft          :      2.94s CPU      3.01s WALL (     184 calls)
     ffts         :      0.31s CPU      0.31s WALL (      21 calls)
     fftw         :      4.93s CPU      4.97s WALL (     767 calls)

     Parallel routines

     PWSCF        :     16.25s CPU     16.68s WALL


   This run was terminated on:   7: 3: 3  24May2021            

=------------------------------------------------------------------------------=
   JOB DONE.
=------------------------------------------------------------------------------=
