
     Program PWSCF v.6.7GPU starts on 24May2021 at  4:42: 7 

     This program is part of the open-source Quantum ESPRESSO suite
     for quantum simulation of materials; please cite
         "P. Giannozzi et al., J. Phys.:Condens. Matter 21 395502 (2009);
         "P. Giannozzi et al., J. Phys.:Condens. Matter 29 465901 (2017);
         "P. Giannozzi et al., J. Chem. Phys. 152 154105 (2020);
          URL http://www.quantum-espresso.org", 
     in publications or presentations arising from this work. More details at
     http://www.quantum-espresso.org/quote

     Parallel version (MPI), running on     4 processors

     MPI processes distributed on     1 nodes
     R & G space division:  proc/nbgrp/npool/nimage =       4
     Waiting for input...
     Reading input from standard input
     Message from routine read_cards :
     DEPRECATED: no units specified in CELL_PARAMETERS card

     Current dimensions of program PWSCF are:
     Max number of different atomic species (ntypx) = 10
     Max number of k-points (npk) =  40000
     Max angular momentum in pseudopotentials (lmaxx) =  3

     gamma-point specific algorithms are used

     Subspace diagonalization in iterative solution of the eigenvalue problem:
     one sub-group per band group will be used
     scalapack distributed-memory algorithm (size of sub-group:  2*  2 procs)


     Parallelization info
     --------------------
     sticks:   dense  smooth     PW     G-vecs:    dense   smooth      PW
     Min        2700    2700    675               211636   211636   26505
     Max        2704    2704    678               211641   211641   26514
     Sum       10805   10805   2709               846553   846553  106047

     Using Slab Decomposition



     bravais-lattice index     =            0
     lattice parameter (alat)  =      20.0000  a.u.
     unit-cell volume          =    8000.0000 (a.u.)^3
     number of atoms/cell      =            6
     number of atomic types    =            3
     number of electrons       =        18.00
     number of Kohn-Sham states=            9
     kinetic-energy cutoff     =      85.0000  Ry
     charge density cutoff     =     340.0000  Ry
     scf convergence threshold =      1.0E-12
     mixing beta               =       0.5000
     number of iterations used =            8  plain     mixing
     Exchange-correlation= PBE
                           (   1   4   3   4   0   0   0)

     celldm(1)=  20.000000  celldm(2)=   0.000000  celldm(3)=   0.000000
     celldm(4)=   0.000000  celldm(5)=   0.000000  celldm(6)=   0.000000

     crystal axes: (cart. coord. in units of alat)
               a(1) = (   1.000000   0.000000   0.000000 )  
               a(2) = (   0.000000   1.000000   0.000000 )  
               a(3) = (   0.000000   0.000000   1.000000 )  

     reciprocal axes: (cart. coord. in units 2 pi/alat)
               b(1) = (  1.000000  0.000000  0.000000 )  
               b(2) = (  0.000000  1.000000  0.000000 )  
               b(3) = (  0.000000  0.000000  1.000000 )  


     PseudoPot. # 1 for Br read from file:
     /home/ciga/builds/pseudo_potentials/Br.upf
     MD5 check sum: 41f672ce76ec6f6480a05aabe46aac99
     Pseudo is Norm-conserving + core correction, Zval =  7.0
     Generated using ONCVPSP code by D. R. Hamann
     Using radial grid of 1110 points,  6 beta functions with: 
                l(1) =   0
                l(2) =   0
                l(3) =   1
                l(4) =   1
                l(5) =   2
                l(6) =   2

     PseudoPot. # 2 for C  read from file:
     /home/ciga/builds/pseudo_potentials/C.upf
     MD5 check sum: d80ec9912146af6c4c1760317d1f95e9
     Pseudo is Norm-conserving + core correction, Zval =  4.0
     Generated using ONCVPSP code by D. R. Hamann
     Using radial grid of 1248 points,  4 beta functions with: 
                l(1) =   0
                l(2) =   0
                l(3) =   1
                l(4) =   1

     PseudoPot. # 3 for H  read from file:
     /home/ciga/builds/pseudo_potentials/H.upf
     MD5 check sum: 418cee52d0c413ae40802e6cc37ab9e3
     Pseudo is Norm-conserving, Zval =  1.0
     Generated using ONCVPSP code by D. R. Hamann
     Using radial grid of 1166 points,  3 beta functions with: 
                l(1) =   0
                l(2) =   0
                l(3) =   1

     atomic species   valence    mass     pseudopotential
        Br             7.00    79.90400     Br( 1.00)
        C              4.00    12.01070     C ( 1.00)
        H              1.00     1.00794     H ( 1.00)

     No symmetry found



   Cartesian axes

     site n.     atom                  positions (alat units)
         1           Br  tau(   1) = (   0.5673411   0.4251563   0.5794864  )
         2           C   tau(   2) = (   0.4177051   0.4251884   0.3580370  )
         3           C   tau(   3) = (   0.4177051   0.4251884   0.4832880  )
         4           H   tau(   4) = (   0.3285733   0.4253320   0.3078893  )
         5           H   tau(   5) = (   0.3331493   0.4251884   0.5401281  )
         6           H   tau(   6) = (   0.5035355   0.4251884   0.3031404  )

     number of k points=     1
                       cart. coord. in units 2pi/alat
        k(    1) = (   0.0000000   0.0000000   0.0000000), wk =   2.0000000

     Dense  grid:   423277 G-vectors     FFT dimensions: ( 120, 120, 120)

     Estimated max dynamical RAM per process >     103.55 MB

     Estimated total dynamical RAM >     414.19 MB

     Initial potential from superposition of free atoms

     starting charge   17.99986, renormalised to   18.00000

     negative rho (up, down):  3.933E-05 0.000E+00
     Starting wfcs are   15 randomized atomic wfcs

     total cpu time spent up to now is        1.6 secs

     Self-consistent Calculation

     iteration #  1     ecut=    85.00 Ry     beta= 0.50
     Davidson diagonalization with overlap
     ethr =  1.00E-02,  avg # of iterations =  2.0

     negative rho (up, down):  3.640E-06 0.000E+00

     total cpu time spent up to now is        3.0 secs

     total energy              =     -58.88240702 Ry
     estimated scf accuracy    <       0.71048602 Ry

     iteration #  2     ecut=    85.00 Ry     beta= 0.50
     Davidson diagonalization with overlap
     ethr =  3.95E-03,  avg # of iterations =  3.0

     negative rho (up, down):  7.517E-07 0.000E+00

     total cpu time spent up to now is        4.4 secs

     total energy              =     -59.03343631 Ry
     estimated scf accuracy    <       0.07606257 Ry

     iteration #  3     ecut=    85.00 Ry     beta= 0.50
     Davidson diagonalization with overlap
     ethr =  4.23E-04,  avg # of iterations =  2.0

     negative rho (up, down):  1.215E-07 0.000E+00

     total cpu time spent up to now is        5.6 secs

     total energy              =     -59.03653816 Ry
     estimated scf accuracy    <       0.01542160 Ry

     iteration #  4     ecut=    85.00 Ry     beta= 0.50
     Davidson diagonalization with overlap
     ethr =  8.57E-05,  avg # of iterations =  4.0

     negative rho (up, down):  1.119E-08 0.000E+00

     total cpu time spent up to now is        7.1 secs

     total energy              =     -59.03765652 Ry
     estimated scf accuracy    <       0.00718393 Ry

     iteration #  5     ecut=    85.00 Ry     beta= 0.50
     Davidson diagonalization with overlap
     ethr =  3.99E-05,  avg # of iterations =  5.0

     total cpu time spent up to now is        8.6 secs

     total energy              =     -59.03956008 Ry
     estimated scf accuracy    <       0.00821532 Ry

     iteration #  6     ecut=    85.00 Ry     beta= 0.50
     Davidson diagonalization with overlap
     ethr =  3.99E-05,  avg # of iterations =  3.0

     total cpu time spent up to now is        9.9 secs

     total energy              =     -59.04012840 Ry
     estimated scf accuracy    <       0.00075340 Ry

     iteration #  7     ecut=    85.00 Ry     beta= 0.50
     Davidson diagonalization with overlap
     ethr =  4.19E-06,  avg # of iterations =  5.0

     total cpu time spent up to now is       11.5 secs

     total energy              =     -59.04055996 Ry
     estimated scf accuracy    <       0.00029759 Ry

     iteration #  8     ecut=    85.00 Ry     beta= 0.50
     Davidson diagonalization with overlap
     ethr =  1.65E-06,  avg # of iterations =  2.0

     total cpu time spent up to now is       12.8 secs

     total energy              =     -59.04054679 Ry
     estimated scf accuracy    <       0.00006012 Ry

     iteration #  9     ecut=    85.00 Ry     beta= 0.50
     Davidson diagonalization with overlap
     ethr =  3.34E-07,  avg # of iterations =  5.0

     total cpu time spent up to now is       14.4 secs

     total energy              =     -59.04057113 Ry
     estimated scf accuracy    <       0.00003213 Ry

     iteration # 10     ecut=    85.00 Ry     beta= 0.50
     Davidson diagonalization with overlap
     ethr =  1.79E-07,  avg # of iterations =  3.0

     total cpu time spent up to now is       15.7 secs

     total energy              =     -59.04057532 Ry
     estimated scf accuracy    <       0.00000078 Ry

     iteration # 11     ecut=    85.00 Ry     beta= 0.50
     Davidson diagonalization with overlap
     ethr =  4.33E-09,  avg # of iterations =  8.0

     total cpu time spent up to now is       17.6 secs

     total energy              =     -59.04057639 Ry
     estimated scf accuracy    <       0.00000226 Ry

     iteration # 12     ecut=    85.00 Ry     beta= 0.50
     Davidson diagonalization with overlap
     ethr =  4.33E-09,  avg # of iterations =  2.0

     total cpu time spent up to now is       18.9 secs

     total energy              =     -59.04057616 Ry
     estimated scf accuracy    <       0.00000085 Ry

     iteration # 13     ecut=    85.00 Ry     beta= 0.50
     Davidson diagonalization with overlap
     ethr =  4.33E-09,  avg # of iterations =  4.0

     total cpu time spent up to now is       20.4 secs

     total energy              =     -59.04057636 Ry
     estimated scf accuracy    <          1.6E-09 Ry

     iteration # 14     ecut=    85.00 Ry     beta= 0.50
     Davidson diagonalization with overlap
     ethr =  8.91E-12,  avg # of iterations =  7.0

     total cpu time spent up to now is       22.5 secs

     total energy              =     -59.04057636 Ry
     estimated scf accuracy    <       0.00000002 Ry

     iteration # 15     ecut=    85.00 Ry     beta= 0.50
     Davidson diagonalization with overlap
     ethr =  8.91E-12,  avg # of iterations =  1.0

     total cpu time spent up to now is       23.7 secs

     total energy              =     -59.04057636 Ry
     estimated scf accuracy    <       0.00000002 Ry

     iteration # 16     ecut=    85.00 Ry     beta= 0.50
     Davidson diagonalization with overlap
     ethr =  8.91E-12,  avg # of iterations =  5.0

     total cpu time spent up to now is       25.4 secs

     total energy              =     -59.04057636 Ry
     estimated scf accuracy    <          5.5E-10 Ry

     iteration # 17     ecut=    85.00 Ry     beta= 0.50
     Davidson diagonalization with overlap
     ethr =  3.07E-12,  avg # of iterations =  1.0

     total cpu time spent up to now is       26.7 secs

     total energy              =     -59.04057636 Ry
     estimated scf accuracy    <          2.4E-10 Ry

     iteration # 18     ecut=    85.00 Ry     beta= 0.50
     Davidson diagonalization with overlap
     ethr =  1.35E-12,  avg # of iterations =  4.0

     total cpu time spent up to now is       28.1 secs

     total energy              =     -59.04057636 Ry
     estimated scf accuracy    <          1.9E-11 Ry

     iteration # 19     ecut=    85.00 Ry     beta= 0.50
     Davidson diagonalization with overlap
     ethr =  1.03E-13,  avg # of iterations =  3.0

     total cpu time spent up to now is       29.5 secs

     total energy              =     -59.04057636 Ry
     estimated scf accuracy    <          1.1E-12 Ry

     iteration # 20     ecut=    85.00 Ry     beta= 0.50
     Davidson diagonalization with overlap
     ethr =  1.00E-13,  avg # of iterations =  5.0

     total cpu time spent up to now is       31.0 secs

     total energy              =     -59.04057636 Ry
     estimated scf accuracy    <          1.7E-11 Ry

     iteration # 21     ecut=    85.00 Ry     beta= 0.50
     Davidson diagonalization with overlap
     ethr =  1.00E-13,  avg # of iterations =  1.0

     total cpu time spent up to now is       32.2 secs

     total energy              =     -59.04057636 Ry
     estimated scf accuracy    <          9.0E-12 Ry

     iteration # 22     ecut=    85.00 Ry     beta= 0.50
     Davidson diagonalization with overlap
     ethr =  1.00E-13,  avg # of iterations =  1.0

     total cpu time spent up to now is       33.4 secs

     total energy              =     -59.04057636 Ry
     estimated scf accuracy    <          3.5E-12 Ry

     iteration # 23     ecut=    85.00 Ry     beta= 0.50
     Davidson diagonalization with overlap
     ethr =  1.00E-13,  avg # of iterations =  2.0

     total cpu time spent up to now is       34.6 secs

     End of self-consistent calculation

          k = 0.0000 0.0000 0.0000 ( 53024 PWs)   bands (ev):

   -20.7388 -18.2074 -14.0141 -11.4867 -10.4739  -8.6842  -8.0587  -6.5859
    -5.8700

     highest occupied level (ev):    -5.8700

!    total energy              =     -59.04057636 Ry
     estimated scf accuracy    <          1.5E-13 Ry

     The total energy is the sum of the following terms:
     one-electron contribution =    -121.63115831 Ry
     hartree contribution      =      62.76800117 Ry
     xc contribution           =     -20.91003962 Ry
     ewald contribution        =      20.73262039 Ry

     convergence has been achieved in  23 iterations

     Forces acting on atoms (cartesian axes, Ry/au):

     atom    1 type  1   force =     0.00839842   -0.00003296    0.00876408
     atom    2 type  2   force =    -0.00332210    0.00016084    0.00200567
     atom    3 type  2   force =     0.00107224   -0.00005190   -0.00846310
     atom    4 type  3   force =    -0.00809595   -0.00009493   -0.00449479
     atom    5 type  3   force =    -0.00821468    0.00003858    0.00910749
     atom    6 type  3   force =     0.01016207   -0.00001963   -0.00691934

     Total force =     0.024951     Total SCF correction =     0.000001

     Writing output data file ./Vynil_bromide.save/

     init_run     :      1.44s CPU      1.53s WALL (       1 calls)
     electrons    :     32.21s CPU     32.94s WALL (       1 calls)
     forces       :      0.91s CPU      0.94s WALL (       1 calls)

     Called by init_run:
     wfcinit      :      0.38s CPU      0.39s WALL (       1 calls)
     potinit      :      0.60s CPU      0.66s WALL (       1 calls)
     hinit0       :      0.27s CPU      0.30s WALL (       1 calls)

     Called by electrons:
     c_bands      :     16.24s CPU     16.35s WALL (      23 calls)
     sum_band     :      4.44s CPU      4.46s WALL (      23 calls)
     v_of_rho     :      8.69s CPU      9.28s WALL (      24 calls)
     mix_rho      :      2.92s CPU      2.96s WALL (      23 calls)

     Called by c_bands:
     init_us_2    :      0.34s CPU      0.35s WALL (      47 calls)
     regterg      :     15.76s CPU     15.86s WALL (      23 calls)

     Called by *egterg:
     rdiaghg      :      0.05s CPU      0.05s WALL (     101 calls)
     h_psi        :     14.27s CPU     14.37s WALL (     102 calls)
     g_psi        :      0.04s CPU      0.04s WALL (      78 calls)

     Called by h_psi:
     h_psi:calbec :      1.14s CPU      1.15s WALL (     102 calls)
     vloc_psi     :     12.11s CPU     12.19s WALL (     102 calls)
     add_vuspsi   :      0.94s CPU      0.94s WALL (     102 calls)

     General routines
     calbec       :      1.21s CPU      1.21s WALL (     106 calls)
     fft          :      6.77s CPU      6.96s WALL (     200 calls)
     ffts         :      0.69s CPU      0.69s WALL (      23 calls)
     fftw         :     11.39s CPU     11.46s WALL (     797 calls)

     Parallel routines

     PWSCF        :     34.69s CPU     35.56s WALL


   This run was terminated on:   4:42:43  24May2021            

=------------------------------------------------------------------------------=
   JOB DONE.
=------------------------------------------------------------------------------=
