
     Program PWSCF v.6.7GPU starts on 24May2021 at  4:39:57 

     This program is part of the open-source Quantum ESPRESSO suite
     for quantum simulation of materials; please cite
         "P. Giannozzi et al., J. Phys.:Condens. Matter 21 395502 (2009);
         "P. Giannozzi et al., J. Phys.:Condens. Matter 29 465901 (2017);
         "P. Giannozzi et al., J. Chem. Phys. 152 154105 (2020);
          URL http://www.quantum-espresso.org", 
     in publications or presentations arising from this work. More details at
     http://www.quantum-espresso.org/quote

     Parallel version (MPI), running on     4 processors

     MPI processes distributed on     1 nodes
     R & G space division:  proc/nbgrp/npool/nimage =       4
     Waiting for input...
     Reading input from standard input
     Message from routine read_cards :
     DEPRECATED: no units specified in CELL_PARAMETERS card

     Current dimensions of program PWSCF are:
     Max number of different atomic species (ntypx) = 10
     Max number of k-points (npk) =  40000
     Max angular momentum in pseudopotentials (lmaxx) =  3

     gamma-point specific algorithms are used

     Subspace diagonalization in iterative solution of the eigenvalue problem:
     one sub-group per band group will be used
     scalapack distributed-memory algorithm (size of sub-group:  2*  2 procs)


     Parallelization info
     --------------------
     sticks:   dense  smooth     PW     G-vecs:    dense   smooth      PW
     Min        1910    1910    473               125614   125614   15665
     Max        1912    1912    476               125624   125624   15668
     Sum        7645    7645   1901               502479   502479   62669

     Using Slab Decomposition



     bravais-lattice index     =            0
     lattice parameter (alat)  =      20.0000  a.u.
     unit-cell volume          =    8000.0000 (a.u.)^3
     number of atoms/cell      =            6
     number of atomic types    =            3
     number of electrons       =        18.00
     number of Kohn-Sham states=            9
     kinetic-energy cutoff     =      60.0000  Ry
     charge density cutoff     =     240.0000  Ry
     scf convergence threshold =      1.0E-12
     mixing beta               =       0.5000
     number of iterations used =            8  plain     mixing
     Exchange-correlation= PBE
                           (   1   4   3   4   0   0   0)

     celldm(1)=  20.000000  celldm(2)=   0.000000  celldm(3)=   0.000000
     celldm(4)=   0.000000  celldm(5)=   0.000000  celldm(6)=   0.000000

     crystal axes: (cart. coord. in units of alat)
               a(1) = (   1.000000   0.000000   0.000000 )  
               a(2) = (   0.000000   1.000000   0.000000 )  
               a(3) = (   0.000000   0.000000   1.000000 )  

     reciprocal axes: (cart. coord. in units 2 pi/alat)
               b(1) = (  1.000000  0.000000  0.000000 )  
               b(2) = (  0.000000  1.000000  0.000000 )  
               b(3) = (  0.000000  0.000000  1.000000 )  


     PseudoPot. # 1 for Br read from file:
     /home/ciga/builds/pseudo_potentials/Br.upf
     MD5 check sum: 41f672ce76ec6f6480a05aabe46aac99
     Pseudo is Norm-conserving + core correction, Zval =  7.0
     Generated using ONCVPSP code by D. R. Hamann
     Using radial grid of 1110 points,  6 beta functions with: 
                l(1) =   0
                l(2) =   0
                l(3) =   1
                l(4) =   1
                l(5) =   2
                l(6) =   2

     PseudoPot. # 2 for C  read from file:
     /home/ciga/builds/pseudo_potentials/C.upf
     MD5 check sum: d80ec9912146af6c4c1760317d1f95e9
     Pseudo is Norm-conserving + core correction, Zval =  4.0
     Generated using ONCVPSP code by D. R. Hamann
     Using radial grid of 1248 points,  4 beta functions with: 
                l(1) =   0
                l(2) =   0
                l(3) =   1
                l(4) =   1

     PseudoPot. # 3 for H  read from file:
     /home/ciga/builds/pseudo_potentials/H.upf
     MD5 check sum: 418cee52d0c413ae40802e6cc37ab9e3
     Pseudo is Norm-conserving, Zval =  1.0
     Generated using ONCVPSP code by D. R. Hamann
     Using radial grid of 1166 points,  3 beta functions with: 
                l(1) =   0
                l(2) =   0
                l(3) =   1

     atomic species   valence    mass     pseudopotential
        Br             7.00    79.90400     Br( 1.00)
        C              4.00    12.01070     C ( 1.00)
        H              1.00     1.00794     H ( 1.00)

     No symmetry found



   Cartesian axes

     site n.     atom                  positions (alat units)
         1           Br  tau(   1) = (   0.5673411   0.4251563   0.5794864  )
         2           C   tau(   2) = (   0.4177051   0.4251884   0.3580370  )
         3           C   tau(   3) = (   0.4177051   0.4251884   0.4832880  )
         4           H   tau(   4) = (   0.3285733   0.4253320   0.3078893  )
         5           H   tau(   5) = (   0.3331493   0.4251884   0.5401281  )
         6           H   tau(   6) = (   0.5035355   0.4251884   0.3031404  )

     number of k points=     1
                       cart. coord. in units 2pi/alat
        k(    1) = (   0.0000000   0.0000000   0.0000000), wk =   2.0000000

     Dense  grid:   251240 G-vectors     FFT dimensions: ( 100, 100, 100)

     Estimated max dynamical RAM per process >      62.11 MB

     Estimated total dynamical RAM >     248.44 MB

     Initial potential from superposition of free atoms

     starting charge   17.99986, renormalised to   18.00000

     negative rho (up, down):  2.392E-04 0.000E+00
     Starting wfcs are   15 randomized atomic wfcs

     total cpu time spent up to now is        1.0 secs

     Self-consistent Calculation

     iteration #  1     ecut=    60.00 Ry     beta= 0.50
     Davidson diagonalization with overlap
     ethr =  1.00E-02,  avg # of iterations =  2.0

     negative rho (up, down):  7.529E-05 0.000E+00

     total cpu time spent up to now is        1.8 secs

     total energy              =     -58.87641600 Ry
     estimated scf accuracy    <       0.70559993 Ry

     iteration #  2     ecut=    60.00 Ry     beta= 0.50
     Davidson diagonalization with overlap
     ethr =  3.92E-03,  avg # of iterations =  3.0

     negative rho (up, down):  3.074E-05 0.000E+00

     total cpu time spent up to now is        2.5 secs

     total energy              =     -59.02615930 Ry
     estimated scf accuracy    <       0.07617452 Ry

     iteration #  3     ecut=    60.00 Ry     beta= 0.50
     Davidson diagonalization with overlap
     ethr =  4.23E-04,  avg # of iterations =  2.0

     negative rho (up, down):  6.781E-06 0.000E+00

     total cpu time spent up to now is        3.2 secs

     total energy              =     -59.02925789 Ry
     estimated scf accuracy    <       0.01541804 Ry

     iteration #  4     ecut=    60.00 Ry     beta= 0.50
     Davidson diagonalization with overlap
     ethr =  8.57E-05,  avg # of iterations =  4.0

     negative rho (up, down):  1.203E-06 0.000E+00

     total cpu time spent up to now is        4.0 secs

     total energy              =     -59.03037849 Ry
     estimated scf accuracy    <       0.00713911 Ry

     iteration #  5     ecut=    60.00 Ry     beta= 0.50
     Davidson diagonalization with overlap
     ethr =  3.97E-05,  avg # of iterations =  5.0

     negative rho (up, down):  3.339E-07 0.000E+00

     total cpu time spent up to now is        4.9 secs

     total energy              =     -59.03224991 Ry
     estimated scf accuracy    <       0.00810342 Ry

     iteration #  6     ecut=    60.00 Ry     beta= 0.50
     Davidson diagonalization with overlap
     ethr =  3.97E-05,  avg # of iterations =  3.0

     negative rho (up, down):  2.009E-08 0.000E+00

     total cpu time spent up to now is        5.6 secs

     total energy              =     -59.03284271 Ry
     estimated scf accuracy    <       0.00070773 Ry

     iteration #  7     ecut=    60.00 Ry     beta= 0.50
     Davidson diagonalization with overlap
     ethr =  3.93E-06,  avg # of iterations =  6.0

     negative rho (up, down):  1.409E-08 0.000E+00

     total cpu time spent up to now is        6.5 secs

     total energy              =     -59.03323951 Ry
     estimated scf accuracy    <       0.00036928 Ry

     iteration #  8     ecut=    60.00 Ry     beta= 0.50
     Davidson diagonalization with overlap
     ethr =  2.05E-06,  avg # of iterations =  2.0

     total cpu time spent up to now is        7.2 secs

     total energy              =     -59.03324284 Ry
     estimated scf accuracy    <       0.00005579 Ry

     iteration #  9     ecut=    60.00 Ry     beta= 0.50
     Davidson diagonalization with overlap
     ethr =  3.10E-07,  avg # of iterations =  7.0

     total cpu time spent up to now is        8.1 secs

     total energy              =     -59.03326716 Ry
     estimated scf accuracy    <       0.00006087 Ry

     iteration # 10     ecut=    60.00 Ry     beta= 0.50
     Davidson diagonalization with overlap
     ethr =  3.10E-07,  avg # of iterations =  3.0

     total cpu time spent up to now is        8.8 secs

     total energy              =     -59.03327524 Ry
     estimated scf accuracy    <       0.00000223 Ry

     iteration # 11     ecut=    60.00 Ry     beta= 0.50
     Davidson diagonalization with overlap
     ethr =  1.24E-08,  avg # of iterations =  6.0

     total cpu time spent up to now is        9.8 secs

     total energy              =     -59.03327700 Ry
     estimated scf accuracy    <       0.00000137 Ry

     iteration # 12     ecut=    60.00 Ry     beta= 0.50
     Davidson diagonalization with overlap
     ethr =  7.63E-09,  avg # of iterations =  2.0

     total cpu time spent up to now is       10.5 secs

     total energy              =     -59.03327687 Ry
     estimated scf accuracy    <       0.00000054 Ry

     iteration # 13     ecut=    60.00 Ry     beta= 0.50
     Davidson diagonalization with overlap
     ethr =  3.02E-09,  avg # of iterations =  3.0

     total cpu time spent up to now is       11.2 secs

     total energy              =     -59.03327695 Ry
     estimated scf accuracy    <       0.00000002 Ry

     iteration # 14     ecut=    60.00 Ry     beta= 0.50
     Davidson diagonalization with overlap
     ethr =  1.25E-10,  avg # of iterations =  6.0

     total cpu time spent up to now is       12.2 secs

     total energy              =     -59.03327698 Ry
     estimated scf accuracy    <       0.00000003 Ry

     iteration # 15     ecut=    60.00 Ry     beta= 0.50
     Davidson diagonalization with overlap
     ethr =  1.25E-10,  avg # of iterations =  2.0

     total cpu time spent up to now is       12.9 secs

     total energy              =     -59.03327698 Ry
     estimated scf accuracy    <       0.00000001 Ry

     iteration # 16     ecut=    60.00 Ry     beta= 0.50
     Davidson diagonalization with overlap
     ethr =  5.69E-11,  avg # of iterations =  3.0

     total cpu time spent up to now is       13.7 secs

     total energy              =     -59.03327698 Ry
     estimated scf accuracy    <          7.7E-11 Ry

     iteration # 17     ecut=    60.00 Ry     beta= 0.50
     Davidson diagonalization with overlap
     ethr =  4.30E-13,  avg # of iterations =  6.0

     total cpu time spent up to now is       14.6 secs

     total energy              =     -59.03327698 Ry
     estimated scf accuracy    <          1.0E-10 Ry

     iteration # 18     ecut=    60.00 Ry     beta= 0.50
     Davidson diagonalization with overlap
     ethr =  4.30E-13,  avg # of iterations =  3.0

     total cpu time spent up to now is       15.4 secs

     total energy              =     -59.03327698 Ry
     estimated scf accuracy    <          2.0E-12 Ry

     iteration # 19     ecut=    60.00 Ry     beta= 0.50
     Davidson diagonalization with overlap
     ethr =  1.00E-13,  avg # of iterations =  4.0

     total cpu time spent up to now is       16.2 secs

     total energy              =     -59.03327698 Ry
     estimated scf accuracy    <          1.7E-11 Ry

     iteration # 20     ecut=    60.00 Ry     beta= 0.50
     Davidson diagonalization with overlap
     ethr =  1.00E-13,  avg # of iterations =  1.0

     total cpu time spent up to now is       16.8 secs

     total energy              =     -59.03327698 Ry
     estimated scf accuracy    <          1.1E-11 Ry

     iteration # 21     ecut=    60.00 Ry     beta= 0.50
     Davidson diagonalization with overlap
     ethr =  1.00E-13,  avg # of iterations =  2.0

     total cpu time spent up to now is       17.6 secs

     total energy              =     -59.03327698 Ry
     estimated scf accuracy    <          1.8E-12 Ry

     iteration # 22     ecut=    60.00 Ry     beta= 0.50
     Davidson diagonalization with overlap
     ethr =  1.00E-13,  avg # of iterations =  1.0

     total cpu time spent up to now is       18.2 secs

     End of self-consistent calculation

          k = 0.0000 0.0000 0.0000 ( 31335 PWs)   bands (ev):

   -20.7426 -18.2144 -14.0190 -11.4874 -10.4745  -8.6836  -8.0586  -6.5859
    -5.8693

     highest occupied level (ev):    -5.8693

!    total energy              =     -59.03327698 Ry
     estimated scf accuracy    <          2.4E-13 Ry

     The total energy is the sum of the following terms:
     one-electron contribution =    -121.61864796 Ry
     hartree contribution      =      62.75952763 Ry
     xc contribution           =     -20.90677704 Ry
     ewald contribution        =      20.73262038 Ry

     convergence has been achieved in  22 iterations

     Forces acting on atoms (cartesian axes, Ry/au):

     atom    1 type  1   force =     0.00854826   -0.00003309    0.00885280
     atom    2 type  2   force =    -0.00322523    0.00015934    0.00148703
     atom    3 type  2   force =     0.00147888   -0.00005110   -0.00773982
     atom    4 type  3   force =    -0.00874669   -0.00009410   -0.00483680
     atom    5 type  3   force =    -0.00883204    0.00003853    0.00954711
     atom    6 type  3   force =     0.01077682   -0.00001958   -0.00731031

     Total force =     0.025784     Total SCF correction =     0.000001

     Writing output data file ./Vynil_bromide.save/

     init_run     :      0.86s CPU      0.90s WALL (       1 calls)
     electrons    :     16.73s CPU     17.17s WALL (       1 calls)
     forces       :      0.54s CPU      0.57s WALL (       1 calls)

     Called by init_run:
     wfcinit      :      0.20s CPU      0.21s WALL (       1 calls)
     potinit      :      0.39s CPU      0.40s WALL (       1 calls)
     hinit0       :      0.20s CPU      0.20s WALL (       1 calls)

     Called by electrons:
     c_bands      :      8.01s CPU      8.07s WALL (      22 calls)
     sum_band     :      2.35s CPU      2.37s WALL (      22 calls)
     v_of_rho     :      4.81s CPU      5.14s WALL (      23 calls)
     mix_rho      :      1.59s CPU      1.62s WALL (      22 calls)

     Called by c_bands:
     init_us_2    :      0.19s CPU      0.20s WALL (      45 calls)
     regterg      :      7.74s CPU      7.80s WALL (      22 calls)

     Called by *egterg:
     rdiaghg      :      0.05s CPU      0.05s WALL (      98 calls)
     h_psi        :      7.05s CPU      7.11s WALL (      99 calls)
     g_psi        :      0.02s CPU      0.02s WALL (      76 calls)

     Called by h_psi:
     h_psi:calbec :      0.63s CPU      0.64s WALL (      99 calls)
     vloc_psi     :      5.87s CPU      5.93s WALL (      99 calls)
     add_vuspsi   :      0.51s CPU      0.51s WALL (      99 calls)

     General routines
     calbec       :      0.67s CPU      0.67s WALL (     103 calls)
     fft          :      3.68s CPU      3.81s WALL (     192 calls)
     ffts         :      0.37s CPU      0.38s WALL (      22 calls)
     fftw         :      5.45s CPU      5.50s WALL (     746 calls)

     Parallel routines

     PWSCF        :     18.25s CPU     18.77s WALL


   This run was terminated on:   4:40:16  24May2021            

=------------------------------------------------------------------------------=
   JOB DONE.
=------------------------------------------------------------------------------=
