
     Program PWSCF v.6.7GPU starts on 24May2021 at  4:39: 8 

     This program is part of the open-source Quantum ESPRESSO suite
     for quantum simulation of materials; please cite
         "P. Giannozzi et al., J. Phys.:Condens. Matter 21 395502 (2009);
         "P. Giannozzi et al., J. Phys.:Condens. Matter 29 465901 (2017);
         "P. Giannozzi et al., J. Chem. Phys. 152 154105 (2020);
          URL http://www.quantum-espresso.org", 
     in publications or presentations arising from this work. More details at
     http://www.quantum-espresso.org/quote

     Parallel version (MPI), running on     4 processors

     MPI processes distributed on     1 nodes
     R & G space division:  proc/nbgrp/npool/nimage =       4
     Waiting for input...
     Reading input from standard input
     Message from routine read_cards :
     DEPRECATED: no units specified in CELL_PARAMETERS card

     Current dimensions of program PWSCF are:
     Max number of different atomic species (ntypx) = 10
     Max number of k-points (npk) =  40000
     Max angular momentum in pseudopotentials (lmaxx) =  3

     gamma-point specific algorithms are used

     Subspace diagonalization in iterative solution of the eigenvalue problem:
     one sub-group per band group will be used
     scalapack distributed-memory algorithm (size of sub-group:  2*  2 procs)


     Parallelization info
     --------------------
     sticks:   dense  smooth     PW     G-vecs:    dense   smooth      PW
     Min        1271    1271    317                68355    68355    8565
     Max        1276    1276    322                68358    68358    8568
     Sum        5097    5097   1281               273425   273425   34265

     Using Slab Decomposition



     bravais-lattice index     =            0
     lattice parameter (alat)  =      20.0000  a.u.
     unit-cell volume          =    8000.0000 (a.u.)^3
     number of atoms/cell      =            6
     number of atomic types    =            3
     number of electrons       =        18.00
     number of Kohn-Sham states=            9
     kinetic-energy cutoff     =      40.0000  Ry
     charge density cutoff     =     160.0000  Ry
     scf convergence threshold =      1.0E-12
     mixing beta               =       0.5000
     number of iterations used =            8  plain     mixing
     Exchange-correlation= PBE
                           (   1   4   3   4   0   0   0)

     celldm(1)=  20.000000  celldm(2)=   0.000000  celldm(3)=   0.000000
     celldm(4)=   0.000000  celldm(5)=   0.000000  celldm(6)=   0.000000

     crystal axes: (cart. coord. in units of alat)
               a(1) = (   1.000000   0.000000   0.000000 )  
               a(2) = (   0.000000   1.000000   0.000000 )  
               a(3) = (   0.000000   0.000000   1.000000 )  

     reciprocal axes: (cart. coord. in units 2 pi/alat)
               b(1) = (  1.000000  0.000000  0.000000 )  
               b(2) = (  0.000000  1.000000  0.000000 )  
               b(3) = (  0.000000  0.000000  1.000000 )  


     PseudoPot. # 1 for Br read from file:
     /home/ciga/builds/pseudo_potentials/Br.upf
     MD5 check sum: 41f672ce76ec6f6480a05aabe46aac99
     Pseudo is Norm-conserving + core correction, Zval =  7.0
     Generated using ONCVPSP code by D. R. Hamann
     Using radial grid of 1110 points,  6 beta functions with: 
                l(1) =   0
                l(2) =   0
                l(3) =   1
                l(4) =   1
                l(5) =   2
                l(6) =   2

     PseudoPot. # 2 for C  read from file:
     /home/ciga/builds/pseudo_potentials/C.upf
     MD5 check sum: d80ec9912146af6c4c1760317d1f95e9
     Pseudo is Norm-conserving + core correction, Zval =  4.0
     Generated using ONCVPSP code by D. R. Hamann
     Using radial grid of 1248 points,  4 beta functions with: 
                l(1) =   0
                l(2) =   0
                l(3) =   1
                l(4) =   1

     PseudoPot. # 3 for H  read from file:
     /home/ciga/builds/pseudo_potentials/H.upf
     MD5 check sum: 418cee52d0c413ae40802e6cc37ab9e3
     Pseudo is Norm-conserving, Zval =  1.0
     Generated using ONCVPSP code by D. R. Hamann
     Using radial grid of 1166 points,  3 beta functions with: 
                l(1) =   0
                l(2) =   0
                l(3) =   1

     atomic species   valence    mass     pseudopotential
        Br             7.00    79.90400     Br( 1.00)
        C              4.00    12.01070     C ( 1.00)
        H              1.00     1.00794     H ( 1.00)

     No symmetry found



   Cartesian axes

     site n.     atom                  positions (alat units)
         1           Br  tau(   1) = (   0.5673411   0.4251563   0.5794864  )
         2           C   tau(   2) = (   0.4177051   0.4251884   0.3580370  )
         3           C   tau(   3) = (   0.4177051   0.4251884   0.4832880  )
         4           H   tau(   4) = (   0.3285733   0.4253320   0.3078893  )
         5           H   tau(   5) = (   0.3331493   0.4251884   0.5401281  )
         6           H   tau(   6) = (   0.5035355   0.4251884   0.3031404  )

     number of k points=     1
                       cart. coord. in units 2pi/alat
        k(    1) = (   0.0000000   0.0000000   0.0000000), wk =   2.0000000

     Dense  grid:   136713 G-vectors     FFT dimensions: (  81,  81,  81)

     Estimated max dynamical RAM per process >      34.94 MB

     Estimated total dynamical RAM >     139.75 MB

     Initial potential from superposition of free atoms

     starting charge   17.99986, renormalised to   18.00000

     negative rho (up, down):  1.486E-03 0.000E+00
     Starting wfcs are   15 randomized atomic wfcs

     total cpu time spent up to now is        0.7 secs

     Self-consistent Calculation

     iteration #  1     ecut=    40.00 Ry     beta= 0.50
     Davidson diagonalization with overlap
     ethr =  1.00E-02,  avg # of iterations =  2.0

     negative rho (up, down):  6.439E-04 0.000E+00

     total cpu time spent up to now is        1.1 secs

     total energy              =     -58.81411602 Ry
     estimated scf accuracy    <       0.64503308 Ry

     iteration #  2     ecut=    40.00 Ry     beta= 0.50
     Davidson diagonalization with overlap
     ethr =  3.58E-03,  avg # of iterations =  3.0

     negative rho (up, down):  3.015E-04 0.000E+00

     total cpu time spent up to now is        1.5 secs

     total energy              =     -58.94183504 Ry
     estimated scf accuracy    <       0.06936030 Ry

     iteration #  3     ecut=    40.00 Ry     beta= 0.50
     Davidson diagonalization with overlap
     ethr =  3.85E-04,  avg # of iterations =  2.0

     negative rho (up, down):  7.129E-05 0.000E+00

     total cpu time spent up to now is        1.8 secs

     total energy              =     -58.94531788 Ry
     estimated scf accuracy    <       0.01352948 Ry

     iteration #  4     ecut=    40.00 Ry     beta= 0.50
     Davidson diagonalization with overlap
     ethr =  7.52E-05,  avg # of iterations =  4.0

     negative rho (up, down):  1.216E-05 0.000E+00

     total cpu time spent up to now is        2.3 secs

     total energy              =     -58.94576019 Ry
     estimated scf accuracy    <       0.00620129 Ry

     iteration #  5     ecut=    40.00 Ry     beta= 0.50
     Davidson diagonalization with overlap
     ethr =  3.45E-05,  avg # of iterations =  5.0

     negative rho (up, down):  3.334E-06 0.000E+00

     total cpu time spent up to now is        2.7 secs

     total energy              =     -58.94753628 Ry
     estimated scf accuracy    <       0.00743151 Ry

     iteration #  6     ecut=    40.00 Ry     beta= 0.50
     Davidson diagonalization with overlap
     ethr =  3.45E-05,  avg # of iterations =  4.0

     negative rho (up, down):  2.138E-07 0.000E+00

     total cpu time spent up to now is        3.1 secs

     total energy              =     -58.94829509 Ry
     estimated scf accuracy    <       0.00031565 Ry

     iteration #  7     ecut=    40.00 Ry     beta= 0.50
     Davidson diagonalization with overlap
     ethr =  1.75E-06,  avg # of iterations =  5.0

     negative rho (up, down):  2.615E-08 0.000E+00

     total cpu time spent up to now is        3.6 secs

     total energy              =     -58.94843856 Ry
     estimated scf accuracy    <       0.00003014 Ry

     iteration #  8     ecut=    40.00 Ry     beta= 0.50
     Davidson diagonalization with overlap
     ethr =  1.67E-07,  avg # of iterations =  2.0

     total cpu time spent up to now is        4.0 secs

     total energy              =     -58.94843551 Ry
     estimated scf accuracy    <       0.00000941 Ry

     iteration #  9     ecut=    40.00 Ry     beta= 0.50
     Davidson diagonalization with overlap
     ethr =  5.23E-08,  avg # of iterations =  6.0

     total cpu time spent up to now is        4.5 secs

     total energy              =     -58.94843927 Ry
     estimated scf accuracy    <       0.00000787 Ry

     iteration # 10     ecut=    40.00 Ry     beta= 0.50
     Davidson diagonalization with overlap
     ethr =  4.37E-08,  avg # of iterations =  3.0

     total cpu time spent up to now is        4.9 secs

     total energy              =     -58.94844041 Ry
     estimated scf accuracy    <       0.00000018 Ry

     iteration # 11     ecut=    40.00 Ry     beta= 0.50
     Davidson diagonalization with overlap
     ethr =  1.00E-09,  avg # of iterations =  6.0

     total cpu time spent up to now is        5.4 secs

     total energy              =     -58.94844064 Ry
     estimated scf accuracy    <       0.00000062 Ry

     iteration # 12     ecut=    40.00 Ry     beta= 0.50
     Davidson diagonalization with overlap
     ethr =  1.00E-09,  avg # of iterations =  3.0

     total cpu time spent up to now is        5.8 secs

     total energy              =     -58.94844058 Ry
     estimated scf accuracy    <       0.00000021 Ry

     iteration # 13     ecut=    40.00 Ry     beta= 0.50
     Davidson diagonalization with overlap
     ethr =  1.00E-09,  avg # of iterations =  5.0

     total cpu time spent up to now is        6.2 secs

     total energy              =     -58.94844064 Ry
     estimated scf accuracy    <          4.5E-09 Ry

     iteration # 14     ecut=    40.00 Ry     beta= 0.50
     Davidson diagonalization with overlap
     ethr =  2.50E-11,  avg # of iterations =  2.0

     total cpu time spent up to now is        6.6 secs

     total energy              =     -58.94844064 Ry
     estimated scf accuracy    <          3.7E-09 Ry

     iteration # 15     ecut=    40.00 Ry     beta= 0.50
     Davidson diagonalization with overlap
     ethr =  2.08E-11,  avg # of iterations =  2.0

     total cpu time spent up to now is        7.0 secs

     total energy              =     -58.94844064 Ry
     estimated scf accuracy    <          5.9E-10 Ry

     iteration # 16     ecut=    40.00 Ry     beta= 0.50
     Davidson diagonalization with overlap
     ethr =  3.27E-12,  avg # of iterations =  6.0

     total cpu time spent up to now is        7.5 secs

     total energy              =     -58.94844064 Ry
     estimated scf accuracy    <          1.5E-09 Ry

     iteration # 17     ecut=    40.00 Ry     beta= 0.50
     Davidson diagonalization with overlap
     ethr =  3.27E-12,  avg # of iterations =  4.0

     total cpu time spent up to now is        7.9 secs

     End of self-consistent calculation

          k = 0.0000 0.0000 0.0000 ( 17133 PWs)   bands (ev):

   -20.7798 -18.2770 -14.0634 -11.4892 -10.4551  -8.6779  -8.0569  -6.5837
    -5.8609

     highest occupied level (ev):    -5.8609

!    total energy              =     -58.94844064 Ry
     estimated scf accuracy    <          6.1E-13 Ry

     The total energy is the sum of the following terms:
     one-electron contribution =    -121.47041903 Ry
     hartree contribution      =      62.66585697 Ry
     xc contribution           =     -20.87649900 Ry
     ewald contribution        =      20.73262042 Ry

     convergence has been achieved in  17 iterations

     Forces acting on atoms (cartesian axes, Ry/au):

     atom    1 type  1   force =     0.01062709   -0.00003417    0.01027946
     atom    2 type  2   force =    -0.00270780    0.00015807   -0.00138904
     atom    3 type  2   force =    -0.00090962   -0.00004863   -0.00645805
     atom    4 type  3   force =    -0.00888488   -0.00009376   -0.00500308
     atom    5 type  3   force =    -0.00905962    0.00003781    0.01039948
     atom    6 type  3   force =     0.01093483   -0.00001932   -0.00782876

     Total force =     0.027304     Total SCF correction =     0.000001

     Writing output data file ./Vynil_bromide.save/

     init_run     :      0.50s CPU      0.54s WALL (       1 calls)
     electrons    :      7.04s CPU      7.28s WALL (       1 calls)
     forces       :      0.32s CPU      0.34s WALL (       1 calls)

     Called by init_run:
     wfcinit      :      0.11s CPU      0.11s WALL (       1 calls)
     potinit      :      0.24s CPU      0.25s WALL (       1 calls)
     hinit0       :      0.12s CPU      0.13s WALL (       1 calls)

     Called by electrons:
     c_bands      :      3.61s CPU      3.65s WALL (      17 calls)
     sum_band     :      0.96s CPU      0.98s WALL (      17 calls)
     v_of_rho     :      2.01s CPU      2.19s WALL (      18 calls)
     mix_rho      :      0.50s CPU      0.51s WALL (      17 calls)

     Called by c_bands:
     init_us_2    :      0.08s CPU      0.09s WALL (      35 calls)
     regterg      :      3.49s CPU      3.53s WALL (      17 calls)

     Called by *egterg:
     rdiaghg      :      0.04s CPU      0.04s WALL (      81 calls)
     h_psi        :      3.19s CPU      3.23s WALL (      82 calls)
     g_psi        :      0.01s CPU      0.01s WALL (      64 calls)

     Called by h_psi:
     h_psi:calbec :      0.30s CPU      0.31s WALL (      82 calls)
     vloc_psi     :      2.65s CPU      2.69s WALL (      82 calls)
     add_vuspsi   :      0.22s CPU      0.22s WALL (      82 calls)

     General routines
     calbec       :      0.32s CPU      0.33s WALL (      86 calls)
     fft          :      1.57s CPU      1.62s WALL (     152 calls)
     ffts         :      0.16s CPU      0.16s WALL (      17 calls)
     fftw         :      2.48s CPU      2.52s WALL (     605 calls)

     Parallel routines

     PWSCF        :      7.98s CPU      8.29s WALL


   This run was terminated on:   4:39:17  24May2021            

=------------------------------------------------------------------------------=
   JOB DONE.
=------------------------------------------------------------------------------=
