
     Program PWSCF v.6.7MaX starts on  3Jun2021 at 21:49:25 

     This program is part of the open-source Quantum ESPRESSO suite
     for quantum simulation of materials; please cite
         "P. Giannozzi et al., J. Phys.:Condens. Matter 21 395502 (2009);
         "P. Giannozzi et al., J. Phys.:Condens. Matter 29 465901 (2017);
          URL http://www.quantum-espresso.org", 
     in publications or presentations arising from this work. More details at
     http://www.quantum-espresso.org/quote

     Parallel version (MPI), running on     4 processors

     MPI processes distributed on     1 nodes
     R & G space division:  proc/nbgrp/npool/nimage =       4
     Waiting for input...
     Reading input from standard input
     Message from routine read_cards :
     DEPRECATED: no units specified in CELL_PARAMETERS card

     Current dimensions of program PWSCF are:
     Max number of different atomic species (ntypx) = 10
     Max number of k-points (npk) =  40000
     Max angular momentum in pseudopotentials (lmaxx) =  3
     Message from routine read_pp_mesh:
     mesh size missing, using the one in header
     Message from routine read_pp_mesh:
     mesh size missing, using the one in header

     gamma-point specific algorithms are used

     Subspace diagonalization in iterative solution of the eigenvalue problem:
     a serial algorithm will be used

     Message from routine setup:
     using ibrav=0 with symmetry is DISCOURAGED, use correct ibrav instead

     Parallelization info
     --------------------
     sticks:   dense  smooth     PW     G-vecs:    dense   smooth      PW
     Min        2543    2543    637               193371   193371   24241
     Max        2548    2548    642               193374   193374   24244
     Sum       10185   10185   2561               773489   773489   96969



     bravais-lattice index     =            0
     lattice parameter (alat)  =      20.0000  a.u.
     unit-cell volume          =    8000.0000 (a.u.)^3
     number of atoms/cell      =            5
     number of atomic types    =            2
     number of electrons       =         8.00
     number of Kohn-Sham states=           10
     kinetic-energy cutoff     =      80.0000  Ry
     charge density cutoff     =     320.0000  Ry
     scf convergence threshold =      1.0E-12
     mixing beta               =       0.5000
     number of iterations used =            8  plain     mixing
     Exchange-correlation= PBE
                           (   1   4   3   4   0   0   0)

     celldm(1)=  20.000000  celldm(2)=   0.000000  celldm(3)=   0.000000
     celldm(4)=   0.000000  celldm(5)=   0.000000  celldm(6)=   0.000000

     crystal axes: (cart. coord. in units of alat)
               a(1) = (   1.000000   0.000000   0.000000 )  
               a(2) = (   0.000000   1.000000   0.000000 )  
               a(3) = (   0.000000   0.000000   1.000000 )  

     reciprocal axes: (cart. coord. in units 2 pi/alat)
               b(1) = (  1.000000  0.000000  0.000000 )  
               b(2) = (  0.000000  1.000000  0.000000 )  
               b(3) = (  0.000000  0.000000  1.000000 )  


     PseudoPot. # 1 for C  read from file:
     /home/ciga/builds/pseudo_potentials/C.upf
     MD5 check sum: 34a24e64c0a39f27c6c36b90a16ac686
     Pseudo is Norm-conserving + core correction, Zval =  4.0
     Generated using ONCVPSP code by D. R. Hamann
     Using radial grid of 1248 points,  4 beta functions with: 
                l(1) =   0
                l(2) =   0
                l(3) =   1
                l(4) =   1

     PseudoPot. # 2 for H  read from file:
     /home/ciga/builds/pseudo_potentials/H.upf
     MD5 check sum: e96aa7e3e4a958db16958554ea960e2a
     Pseudo is Norm-conserving, Zval =  1.0
     Generated using ONCVPSP code by D. R. Hamann
     Using radial grid of 1166 points,  3 beta functions with: 
                l(1) =   0
                l(2) =   0
                l(3) =   1

     atomic species   valence    mass     pseudopotential
        C              4.00    12.01070     C ( 1.00)
        H              1.00     1.00794     H ( 1.00)

     24 Sym. Ops. (no inversion) found



   Cartesian axes

     site n.     atom                  positions (alat units)
         1           C   tau(   1) = (   0.0000000   0.0000000   0.0000000  )
         2           H   tau(   2) = (   0.0592996  -0.0592902   0.0592996  )
         3           H   tau(   3) = (  -0.0592996   0.0592996   0.0592996  )
         4           H   tau(   4) = (  -0.0592996  -0.0592996  -0.0592996  )
         5           H   tau(   5) = (   0.0592996   0.0592996  -0.0592996  )

     number of k points=     1
                       cart. coord. in units 2pi/alat
        k(    1) = (   0.0000000   0.0000000   0.0000000), wk =   2.0000000

     Dense  grid:   386745 G-vectors     FFT dimensions: ( 120, 120, 120)

     Estimated max dynamical RAM per process >      88.03 MB

     Estimated total dynamical RAM >     352.11 MB

     Initial potential from superposition of free atoms

     starting charge    7.99992, renormalised to    8.00000

     negative rho (up, down):  5.812E-05 0.000E+00
     Starting wfcs are    8 randomized atomic wfcs +    2 random wfcs

     total cpu time spent up to now is        1.5 secs

     Self-consistent Calculation

     iteration #  1     ecut=    80.00 Ry     beta= 0.50
     Davidson diagonalization with overlap
     ethr =  1.00E-02,  avg # of iterations =  5.0

     negative rho (up, down):  2.661E-05 0.000E+00

     total cpu time spent up to now is        3.6 secs

     total energy              =     -16.67499579 Ry
     estimated scf accuracy    <       0.70498568 Ry

     iteration #  2     ecut=    80.00 Ry     beta= 0.50
     Davidson diagonalization with overlap
     ethr =  8.81E-03,  avg # of iterations =  2.0

     negative rho (up, down):  9.009E-06 0.000E+00

     total cpu time spent up to now is        5.1 secs

     total energy              =     -16.80731125 Ry
     estimated scf accuracy    <       0.05460063 Ry

     iteration #  3     ecut=    80.00 Ry     beta= 0.50
     Davidson diagonalization with overlap
     ethr =  6.83E-04,  avg # of iterations =  6.0

     total cpu time spent up to now is        7.0 secs

     total energy              =     -16.80685542 Ry
     estimated scf accuracy    <       0.01077098 Ry

     iteration #  4     ecut=    80.00 Ry     beta= 0.50
     Davidson diagonalization with overlap
     ethr =  1.35E-04,  avg # of iterations = 11.0

     negative rho (up, down):  3.617E-07 0.000E+00

     total cpu time spent up to now is        9.6 secs

     total energy              =     -16.80839481 Ry
     estimated scf accuracy    <       0.00098280 Ry

     iteration #  5     ecut=    80.00 Ry     beta= 0.50
     Davidson diagonalization with overlap
     ethr =  1.23E-05,  avg # of iterations =  5.0

     negative rho (up, down):  1.470E-07 0.000E+00

     total cpu time spent up to now is       11.3 secs

     total energy              =     -16.80842823 Ry
     estimated scf accuracy    <       0.00004811 Ry

     iteration #  6     ecut=    80.00 Ry     beta= 0.50
     Davidson diagonalization with overlap
     ethr =  6.01E-07,  avg # of iterations =  4.0

     total cpu time spent up to now is       13.0 secs

     total energy              =     -16.80845381 Ry
     estimated scf accuracy    <       0.00001193 Ry

     iteration #  7     ecut=    80.00 Ry     beta= 0.50
     Davidson diagonalization with overlap
     ethr =  1.49E-07,  avg # of iterations =  2.0

     total cpu time spent up to now is       14.5 secs

     total energy              =     -16.80845535 Ry
     estimated scf accuracy    <       0.00000065 Ry

     iteration #  8     ecut=    80.00 Ry     beta= 0.50
     Davidson diagonalization with overlap
     ethr =  8.16E-09,  avg # of iterations =  2.0

     total cpu time spent up to now is       16.0 secs

     total energy              =     -16.80845523 Ry
     estimated scf accuracy    <       0.00000042 Ry

     iteration #  9     ecut=    80.00 Ry     beta= 0.50
     Davidson diagonalization with overlap
     ethr =  5.22E-09,  avg # of iterations =  2.0

     total cpu time spent up to now is       17.5 secs

     total energy              =     -16.80845529 Ry
     estimated scf accuracy    <       0.00000003 Ry

     iteration # 10     ecut=    80.00 Ry     beta= 0.50
     Davidson diagonalization with overlap
     ethr =  3.13E-10,  avg # of iterations =  3.0

     total cpu time spent up to now is       19.1 secs

     total energy              =     -16.80845530 Ry
     estimated scf accuracy    <          1.2E-09 Ry

     iteration # 11     ecut=    80.00 Ry     beta= 0.50
     Davidson diagonalization with overlap
     ethr =  1.45E-11,  avg # of iterations =  2.0

     total cpu time spent up to now is       20.7 secs

     total energy              =     -16.80845530 Ry
     estimated scf accuracy    <          4.7E-11 Ry

     iteration # 12     ecut=    80.00 Ry     beta= 0.50
     Davidson diagonalization with overlap
     ethr =  5.89E-13,  avg # of iterations =  3.0

     total cpu time spent up to now is       22.3 secs

     total energy              =     -16.80845530 Ry
     estimated scf accuracy    <          9.4E-11 Ry

     iteration # 13     ecut=    80.00 Ry     beta= 0.50
     Davidson diagonalization with overlap
     ethr =  5.89E-13,  avg # of iterations =  3.0

     total cpu time spent up to now is       23.9 secs

     total energy              =     -16.80845530 Ry
     estimated scf accuracy    <          7.3E-11 Ry

     iteration # 14     ecut=    80.00 Ry     beta= 0.50
     Davidson diagonalization with overlap
     ethr =  5.89E-13,  avg # of iterations =  2.0

     total cpu time spent up to now is       25.4 secs

     total energy              =     -16.80845530 Ry
     estimated scf accuracy    <          1.0E-11 Ry

     iteration # 15     ecut=    80.00 Ry     beta= 0.50
     Davidson diagonalization with overlap
     ethr =  1.31E-13,  avg # of iterations =  2.0

     total cpu time spent up to now is       26.8 secs

     End of self-consistent calculation

          k = 0.0000 0.0000 0.0000 ( 48485 PWs)   bands (ev):

   -16.9543  -9.3271  -9.3268  -9.3266  -0.4550   0.9071   0.9744   0.9744
     0.9745   1.1847

     highest occupied, lowest unoccupied level (ev):    -9.3266   -0.4550

!    total energy              =     -16.80845530 Ry
     estimated scf accuracy    <          9.9E-13 Ry

     The total energy is the sum of the following terms:
     one-electron contribution =     -41.37099854 Ry
     hartree contribution      =      21.56919721 Ry
     xc contribution           =      -7.15265267 Ry
     ewald contribution        =      10.14599871 Ry

     convergence has been achieved in  15 iterations

     Forces acting on atoms (cartesian axes, Ry/au):

     atom    1 type  1   force =     0.00000000    0.00000000    0.00000000
     atom    2 type  2   force =     0.00528131   -0.00528131    0.00528131
     atom    3 type  2   force =    -0.00528131    0.00528131    0.00528131
     atom    4 type  2   force =    -0.00528131   -0.00528131   -0.00528131
     atom    5 type  2   force =     0.00528131    0.00528131   -0.00528131

     Total force =     0.018295     Total SCF correction =     0.000001

     Writing output data file ./Methane.save/

     init_run     :      1.30s CPU      1.44s WALL (       1 calls)
     electrons    :     24.64s CPU     25.33s WALL (       1 calls)
     forces       :      0.81s CPU      0.85s WALL (       1 calls)

     Called by init_run:
     wfcinit      :      0.26s CPU      0.28s WALL (       1 calls)
     potinit      :      0.58s CPU      0.66s WALL (       1 calls)
     hinit0       :      0.30s CPU      0.33s WALL (       1 calls)

     Called by electrons:
     c_bands      :     12.41s CPU     12.58s WALL (      15 calls)
     sum_band     :      3.48s CPU      3.55s WALL (      15 calls)
     v_of_rho     :      7.10s CPU      7.55s WALL (      16 calls)
     mix_rho      :      1.83s CPU      1.86s WALL (      15 calls)

     Called by c_bands:
     init_us_2    :      0.12s CPU      0.12s WALL (      31 calls)
     regterg      :     12.28s CPU     12.45s WALL (      15 calls)

     Called by *egterg:
     rdiaghg      :      0.01s CPU      0.01s WALL (      69 calls)
     h_psi        :     11.29s CPU     11.48s WALL (      70 calls)
     g_psi        :      0.02s CPU      0.02s WALL (      54 calls)

     Called by h_psi:
     h_psi:calbec :      0.40s CPU      0.40s WALL (      70 calls)
     vloc_psi     :     10.45s CPU     10.64s WALL (      70 calls)
     add_vuspsi   :      0.39s CPU      0.39s WALL (      70 calls)

     General routines
     calbec       :      0.43s CPU      0.43s WALL (      74 calls)
     fft          :      5.61s CPU      5.88s WALL (     136 calls)
     ffts         :      0.69s CPU      0.70s WALL (      15 calls)
     fftw         :     10.44s CPU     10.64s WALL (     529 calls)

     Parallel routines
     fft_scatt_xy :      2.76s CPU      2.77s WALL (     680 calls)
     fft_scatt_yz :      4.75s CPU      5.12s WALL (     680 calls)

     PWSCF        :     26.83s CPU     27.73s WALL


   This run was terminated on:  21:49:52   3Jun2021            

=------------------------------------------------------------------------------=
   JOB DONE.
=------------------------------------------------------------------------------=
